/*--------------------------------*- C++ -*----------------------------------*\
| =========                 |                                                 |
| \\      /  F ield         | OpenFOAM: The Open Source CFD Toolbox           |
|  \\    /   O peration     | Version:  4.1                                   |
|   \\  /    A nd           | Web:      www.OpenFOAM.org                      |
|    \\/     M anipulation  |                                                 |
\*---------------------------------------------------------------------------*/
FoamFile
{
    version     2.0;
    format      ascii;
    class       volVectorField;
    location    "2e-05";
    object      U;
}
// * * * * * * * * * * * * * * * * * * * * * * * * * * * * * * * * * * * * * //

dimensions      [0 1 -1 0 0 0 0];

internalField   nonuniform List<vector> 
12360
(
(0 -2.64286e-15 -1.27587e-15)
(0 -2.55173e-15 2.55173e-15)
(1.91381e-15 -2.55174e-15 -2.23277e-15)
(-1.91381e-15 -1.91381e-15 -4.46555e-15)
(0 -1.94504e-23 -1.36702e-16)
(5.5771e-16 -5.92383e-16 3.64543e-16)
(-1.40889e-15 -9.56996e-16 1.27599e-15)
(-2.73442e-16 -2.09639e-15 -2.09639e-15)
(-1.36716e-16 1.07189e-23 -6.75654e-24)
(0 1.29496e-23 8.14879e-24)
(0 2.23119e-24 -1.84477e-24)
(0 9.57056e-16 9.57056e-16)
(1.36699e-16 2.50616e-15 6.83497e-16)
(0 1.27586e-15 -6.83498e-16)
(2.78867e-16 1.27589e-15 1.68599e-15)
(2.78876e-16 -1.11846e-23 -2.07892e-23)
(0 -1.27596e-15 -9.56973e-16)
(0 -3.22651e-24 1.9139e-15)
(-2.71574e-16 -2.22727e-15 -2.91634e-15)
(2.78886e-16 4.19619e-16 1.28731e-23)
(6.31828e-16 -1.84004e-23 3.98381e-24)
(-3.25137e-16 9.57041e-16 1.27605e-15)
(-9.57015e-16 -6.13313e-24 5.59511e-25)
(-9.57056e-16 -6.89606e-25 1.40261e-23)
(5.92352e-16 2.92847e-16 -1.27584e-15)
(-4.10097e-16 1.68727e-15 -1.59482e-15)
(7.32013e-18 -6.6983e-16 1.27588e-15)
(0 -2.0961e-15 8.20214e-16)
(0 -5.46803e-16 -1.27587e-15)
(4.51211e-16 9.56936e-16 -4.10115e-16)
(0 -1.55972e-24 -2.55194e-15)
(-2.71879e-16 5.87995e-18 2.55198e-15)
(-2.71884e-16 -1.27048e-15 9.11393e-24)
(0 -9.57011e-16 1.27601e-15)
(-1.81919e-15 9.46641e-24 1.62246e-24)
(0 -1.64067e-15 1.27607e-15)
(-2.36932e-15 -1.0024e-15 1.45804e-15)
(-1.80527e-16 -6.37895e-16 9.56842e-16)
(1.96084e-15 2.49397e-16 -1.27582e-15)
(-9.93343e-16 2.7731e-15 -2.55169e-15)
(6.99212e-18 1.40649e-15 2.00501e-15)
(6.83526e-16 1.27591e-15 1.27591e-15)
(1.42142e-16 -8.20227e-16 -2.41511e-15)
(2.7888e-16 1.36709e-16 1.27595e-15)
(-2.71599e-16 5.56101e-16 -1.64059e-15)
(-1.5476e-15 -1.27015e-15 -2.55205e-15)
(-3.64574e-16 1.27601e-15 1.35509e-23)
(-1.50385e-15 8.20282e-16 1.64056e-15)
(1.27574e-15 -2.33777e-15 -1.27574e-15)
(-5.51013e-16 4.6937e-16 -1.27574e-15)
(-6.31015e-16 3.97081e-16 -3.15282e-23)
(-3.64598e-17 1.10534e-23 -1.27582e-15)
(5.5773e-16 2.55367e-15 -3.37188e-15)
(7.32039e-18 -1.27005e-15 1.27593e-15)
(0 1.45821e-15 1.41264e-15)
(4.51311e-16 -1.27597e-15 1.36712e-16)
(3.03562e-32 1.27598e-15 2.55196e-15)
(-4.08626e-16 -1.27005e-15 -2.68869e-15)
(-1.35169e-16 -2.13239e-15 -2.80001e-24)
(-9.57056e-16 8.20334e-16 1.57009e-23)
(3.18915e-16 -4.1406e-16 -8.81187e-24)
(0 -1.45206e-15 1.27567e-15)
(-4.92468e-16 -2.01754e-15 -1.27572e-15)
(1.78609e-15 1.19244e-15 1.27578e-15)
(-1.72852e-15 2.40652e-16 1.2758e-15)
(1.46167e-15 -9.51275e-16 9.56911e-16)
(9.10687e-16 -1.58939e-15 3.09868e-15)
(2.78886e-16 1.13926e-15 1.27597e-15)
(-6.78088e-16 -1.27596e-15 -1.27596e-15)
(-4.10141e-16 -5.28435e-24 -9.56996e-16)
(1.38545e-16 6.93123e-16 2.00517e-15)
(-1.27605e-15 -2.64539e-16 1.27605e-15)
(-3.18893e-16 -5.6244e-16 -8.20012e-16)
(1.17972e-15 2.4086e-15 2.55118e-15)
(-1.24875e-15 2.17718e-15 3.18914e-16)
(-2.69163e-16 -2.63819e-16 4.10053e-15)
(3.84684e-16 -2.25605e-15 5.01194e-15)
(-1.50389e-15 8.74629e-16 1.36703e-16)
(7.1245e-16 -1.3611e-15 1.36704e-15)
(1.67881e-15 4.6131e-16 -2.55194e-15)
(-3.31125e-16 2.57512e-25 1.27598e-15)
(-1.13651e-15 -9.66057e-24 -2.552e-15)
(-2.36854e-16 1.35613e-23 2.63301e-25)
(-2.73435e-16 -8.56977e-16 4.19267e-15)
(-2.64212e-15 2.35985e-16 1.13885e-15)
(-2.20411e-16 -1.79427e-15 3.46212e-15)
(8.68254e-16 -2.6709e-16 -6.83345e-16)
(-1.61634e-15 -3.17128e-15 -1.27566e-15)
(-1.13296e-15 1.86003e-15 2.09582e-15)
(1.46979e-15 3.11337e-15 -1.36697e-15)
(-1.59986e-15 1.23917e-15 3.40977e-24)
(8.41265e-16 6.89198e-16 1.27593e-15)
(3.95828e-16 -9.51103e-16 2.72157e-23)
(1.39468e-16 3.03202e-24 -1.43436e-23)
(5.56801e-16 -3.13498e-24 -1.27603e-15)
(-4.10146e-16 5.46861e-16 -1.13929e-15)
(2.09533e-15 -1.18622e-15 1.22987e-15)
(1.20345e-15 -2.40437e-17 -1.27545e-15)
(2.03998e-16 -3.29495e-16 4.55541e-16)
(-1.23924e-15 4.35926e-16 -1.27562e-15)
(6.06279e-16 -1.9805e-16 1.2757e-15)
(-9.21104e-17 -4.66808e-16 -1.08473e-23)
(5.26064e-16 -1.49493e-15 1.16265e-24)
(-7.88254e-16 -1.08453e-15 -1.13921e-15)
(8.58215e-16 -5.82926e-16 1.91394e-15)
(1.74408e-15 5.56424e-16 1.27601e-15)
(-1.12938e-15 -4.84197e-24 1.27603e-15)
(1.27604e-15 -1.36719e-16 2.09636e-15)
(0 2.70593e-15 8.18467e-24)
(-7.20114e-16 4.43708e-18 1.41204e-15)
(-9.64299e-16 -2.08048e-15 -1.27546e-15)
(-1.77352e-16 2.29623e-15 -1.61604e-23)
(1.23383e-15 3.98369e-16 1.27567e-15)
(-7.16346e-17 -3.18556e-15 -1.36689e-16)
(-1.14967e-15 2.56124e-15 1.68598e-15)
(-1.44201e-15 2.68033e-15 -2.55181e-15)
(1.08503e-15 5.46847e-16 3.91907e-15)
(6.18536e-16 4.06533e-16 2.55203e-15)
(-1.38281e-16 6.40803e-24 1.27604e-15)
(-1.27606e-15 5.46883e-16 1.91409e-15)
(4.55455e-16 -2.46812e-15 1.27527e-15)
(5.56006e-16 1.09756e-15 -3.18836e-16)
(-2.37074e-16 1.12517e-15 -2.10479e-23)
(2.03819e-16 -8.26055e-16 9.67342e-24)
(-2.06832e-15 9.1337e-16 1.13898e-15)
(9.0777e-17 1.54517e-15 2.60132e-23)
(2.26815e-15 -1.37094e-15 8.20201e-16)
(7.11312e-16 1.27165e-15 -3.64549e-16)
(1.53293e-16 -2.73427e-16 -1.27599e-15)
(-6.44491e-16 3.19004e-16 9.57011e-16)
(-1.10199e-15 -9.57038e-16 2.14177e-23)
(1.00262e-15 -8.20327e-16 1.27606e-15)
(-3.18807e-16 6.52176e-16 1.63958e-15)
(8.06401e-17 2.83487e-15 1.2753e-15)
(-9.07746e-16 -1.38968e-15 -1.27541e-15)
(5.20514e-16 2.95913e-16 1.27552e-15)
(1.31503e-16 -4.28844e-16 1.27563e-15)
(-2.90436e-17 -1.09486e-15 1.27574e-15)
(-1.06761e-15 1.68235e-15 -7.74641e-16)
(1.69597e-15 -2.17428e-15 -8.20176e-24)
(-1.56946e-16 2.90778e-16 -1.36712e-16)
(-1.9265e-15 3.25624e-23 -1.27602e-15)
(5.23708e-16 1.36722e-16 5.46431e-24)
(8.20327e-16 2.32426e-15 -1.41279e-15)
(5.46519e-16 2.7326e-16 1.13858e-15)
(2.33508e-19 2.17956e-23 -1.27526e-15)
(-2.02463e-15 1.91309e-15 1.27537e-15)
(1.2176e-15 6.83294e-16 2.09543e-15)
(4.72908e-16 4.3897e-24 -9.56694e-16)
(-1.16033e-15 -2.41445e-24 -2.23251e-15)
(-5.7938e-17 1.36702e-16 4.10105e-16)
(1.26226e-15 -9.64509e-25 1.59489e-15)
(-1.3236e-16 -6.83522e-16 -2.96206e-15)
(-5.93124e-16 1.06837e-24 1.27604e-15)
(2.07401e-15 8.20331e-16 1.13935e-15)
(8.20329e-16 -2.73443e-16 -1.95968e-15)
(-1.59403e-15 -6.52193e-16 -1.73066e-15)
(2.08154e-15 -1.19536e-15 -1.2753e-15)
(1.35817e-15 1.38993e-15 -1.27541e-15)
(-7.97094e-16 5.24103e-16 -4.19098e-15)
(-1.45796e-15 4.28869e-16 1.68565e-15)
(4.67634e-17 2.74741e-16 1.27574e-15)
(-1.20965e-16 -4.52043e-16 6.83506e-16)
(-4.58186e-16 2.17428e-15 -2.55185e-15)
(1.55213e-16 -1.11101e-15 9.56987e-16)
(2.87819e-16 -2.6257e-23 -1.27602e-15)
(-1.74073e-16 2.72065e-25 -1.01349e-23)
(4.55738e-16 -1.50393e-15 1.36721e-16)
(1.27527e-15 4.18571e-16 2.55055e-15)
(-5.19199e-17 -1.78073e-15 1.27534e-15)
(-3.76541e-16 -3.03825e-15 1.23498e-24)
(2.79208e-16 -6.7726e-16 -1.63998e-15)
(-1.38832e-15 -1.05008e-15 -1.27566e-15)
(1.43253e-15 -8.61762e-16 -1.73137e-15)
(2.27676e-15 1.50767e-15 -1.367e-15)
(-2.38112e-15 -1.68177e-15 -4.05561e-15)
(1.90954e-16 1.77728e-15 -1.27599e-15)
(-1.93694e-15 -1.1393e-15 9.57011e-16)
(1.38289e-16 -8.20319e-16 -1.3672e-16)
(3.19016e-16 -5.46885e-16 -5.46885e-16)
(5.01025e-16 -1.09819e-16 1.41198e-15)
(1.706e-15 -9.6098e-16 1.08168e-23)
(-6.58842e-17 3.85717e-15 1.41211e-15)
(-2.44604e-16 -2.29624e-15 1.27556e-15)
(4.89165e-16 -2.6169e-16 -1.27567e-15)
(-3.65718e-16 3.32226e-15 2.55154e-15)
(-4.72869e-16 -4.20165e-15 1.09361e-15)
(4.72211e-16 -2.13348e-15 1.2759e-15)
(-1.40523e-15 2.73424e-16 4.55706e-16)
(-6.21384e-16 2.77076e-16 -8.20294e-16)
(2.54214e-15 1.09374e-15 -2.09634e-15)
(-1.82294e-15 1.64065e-15 2.26808e-24)
(1.27542e-15 -1.80179e-16 2.07328e-23)
(4.65485e-18 2.21068e-15 -1.27545e-15)
(1.76956e-16 -1.44691e-15 1.95451e-23)
(-7.74763e-16 -4.35926e-16 1.27562e-15)
(1.72322e-15 7.44797e-16 1.2757e-15)
(-1.34986e-15 -9.00063e-16 -4.10079e-16)
(1.30006e-15 1.63163e-15 -2.55177e-15)
(1.09973e-15 3.13514e-15 -1.09364e-15)
(-1.27956e-15 7.19558e-16 -1.27596e-15)
(3.89368e-16 -4.19631e-16 1.68616e-15)
(-9.92969e-18 -6.83587e-16 2.09633e-15)
(4.10157e-16 -2.73438e-16 1.41276e-15)
(1.91326e-15 -1.32939e-15 2.27769e-16)
(-9.99036e-17 1.54321e-16 -1.82217e-16)
(-6.19259e-16 -1.23626e-15 1.27558e-15)
(-2.89506e-16 3.17128e-15 5.01153e-15)
(6.07669e-16 -2.40676e-15 1.36684e-16)
(7.42498e-17 -1.47313e-15 -1.91375e-15)
(-5.76265e-16 1.08486e-15 -1.27588e-15)
(3.35961e-16 -2.05622e-15 1.27593e-15)
(-9.68973e-17 2.31821e-15 -1.09369e-15)
(-1.39487e-16 5.2096e-25 -2.55205e-15)
(-1.85947e-15 4.10151e-16 -1.41274e-15)
(1.27601e-15 -5.46861e-16 2.39529e-23)
(0 2.20246e-15 -1.23002e-15)
(-6.52552e-17 -2.95534e-15 -1.3667e-16)
(7.80936e-17 1.23976e-15 -9.19243e-24)
(1.09634e-15 2.63819e-16 2.73368e-16)
(9.94635e-17 2.25585e-15 4.55631e-16)
(-1.45831e-15 -1.14804e-15 2.55179e-15)
(7.84748e-16 -5.87956e-18 -1.27591e-15)
(1.18918e-15 -1.28152e-15 -2.09623e-15)
(1.49835e-15 -8.20273e-16 -4.01023e-15)
(-2.91657e-15 -8.20285e-16 -1.32157e-15)
(0 -4.91808e-24 -1.66344e-23)
(0 7.2035e-16 3.09893e-15)
(2.55132e-15 4.1406e-16 3.84751e-24)
(9.56736e-16 1.45206e-15 1.27567e-15)
(-1.50121e-16 -3.06026e-16 -1.11198e-23)
(-1.04176e-16 -7.82196e-16 -1.27578e-15)
(-6.98719e-16 -2.40652e-16 -2.22927e-23)
(4.06475e-16 9.51357e-16 -1.73155e-15)
(8.67345e-16 2.54628e-15 9.56946e-16)
(-4.51311e-16 -1.27597e-15 1.36712e-15)
(-8.20261e-16 3.1899e-16 -4.1013e-16)
(8.20282e-16 -2.4484e-24 -1.73171e-15)
(-2.71574e-16 -5.56352e-16 -1.04491e-23)
(-1.27605e-15 -5.55704e-16 1.82329e-23)
(1.27574e-15 2.33769e-15 1.27574e-15)
(-4.61631e-16 1.44424e-15 -1.27574e-15)
(6.35648e-16 1.10641e-15 -1.68584e-15)
(4.46545e-16 -1.58509e-23 3.82746e-15)
(-5.50396e-16 -2.00683e-15 -1.67411e-24)
(1.00437e-15 1.27005e-15 1.27593e-15)
(-2.78877e-16 -2.55187e-15 1.27593e-15)
(1.08823e-15 1.27597e-15 -2.73423e-16)
(-8.20274e-16 -4.55708e-16 1.36712e-16)
(-8.18765e-16 2.09039e-15 2.41526e-15)
(-2.71894e-16 1.99567e-15 1.91411e-23)
(-9.57056e-16 3.79018e-24 3.93773e-25)
(1.82255e-16 1.82255e-16 1.45804e-15)
(1.36707e-16 -1.27579e-15 3.23504e-15)
(-2.77318e-16 -5.22745e-16 4.55648e-17)
(8.65751e-16 -2.36293e-15 1.02382e-23)
(-2.71864e-16 -1.40647e-15 -1.1883e-23)
(5.05624e-16 3.64547e-16 1.27591e-15)
(-9.56931e-16 9.56931e-16 2.99925e-23)
(0 1.17368e-23 1.27595e-15)
(-2.71544e-16 -1.92318e-15 9.57011e-16)
(-1.5476e-15 1.27015e-15 -2.55205e-15)
(8.62224e-16 -1.27601e-15 2.46087e-15)
(0 2.58219e-25 1.67077e-23)
(0 6.64005e-16 -1.27584e-15)
(-1.50497e-20 -1.68738e-15 -3.37191e-15)
(7.25471e-16 -1.5038e-16 -1.27588e-15)
(-2.78867e-16 1.27589e-15 1.27589e-15)
(8.20205e-16 -4.26281e-24 -1.27587e-15)
(6.83526e-16 2.68287e-24 -2.27842e-16)
(-1.50382e-15 5.27174e-26 1.59496e-15)
(-8.18731e-16 -5.87996e-18 -2.55198e-15)
(6.0014e-16 8.60329e-16 1.54944e-15)
(3.25156e-16 5.41625e-24 -1.27601e-15)
(-1.27598e-15 -2.22987e-23 1.55806e-23)
(0 -5.94742e-24 -3.33091e-25)
(8.20196e-16 -1.27586e-15 4.55665e-16)
(0 -1.27586e-15 -6.83498e-16)
(0 -1.27589e-15 -1.56894e-23)
(0 1.84417e-23 1.27593e-15)
(0 -3.64561e-16 -4.7993e-24)
(-2.78877e-16 -1.64049e-15 -2.09909e-24)
(-4.1014e-16 1.27029e-15 1.2759e-15)
(2.78912e-16 -9.66556e-16 -1.23422e-23)
(-8.6583e-16 4.1013e-16 2.2785e-15)
(1.27605e-15 2.92271e-24 1.13933e-15)
(0 -1.20462e-25 4.13797e-24)
(-9.57056e-16 -8.16456e-25 9.41003e-24)
(0 1.27587e-15 1.27587e-15)
(0 1.27586e-15 -1.31392e-23)
(1.367e-16 1.27587e-15 -1.367e-16)
(-2.73401e-16 2.41504e-15 6.74761e-24)
(0 -1.36702e-16 -2.73405e-16)
(-1.13376e-15 4.55679e-16 1.82272e-16)
(1.84827e-18 -1.27599e-15 -9.56996e-16)
(0 1.27606e-15 -1.27606e-15)
(0 -8.84879e-24 -2.55204e-15)
(0 -8.87025e-24 2.55215e-15)
(1.36716e-16 4.77546e-24 4.10149e-16)
(1.36722e-16 1.36722e-16 1.27607e-15)
(0 1.27586e-15 1.27586e-15)
(-9.56897e-16 1.18473e-15 -2.09606e-15)
(4.15583e-16 1.00248e-15 1.41259e-15)
(9.6245e-16 -1.27593e-15 -1.70741e-23)
(0 -6.83552e-16 1.41267e-15)
(1.36707e-16 1.14859e-23 1.5521e-23)
(-2.71574e-16 -3.64543e-16 -1.59488e-15)
(2.78886e-16 -2.03729e-23 -1.82282e-15)
(-1.6011e-15 2.2785e-15 -1.26748e-23)
(9.50888e-16 1.27605e-15 -9.03263e-24)
(0 -1.85343e-24 -8.20299e-16)
(-9.57056e-16 -8.39984e-24 -9.57056e-16)
(1.36695e-16 -8.69881e-16 -1.27582e-15)
(-1.36699e-16 -5.92364e-16 1.95936e-15)
(4.10098e-16 -9.11329e-17 -4.05542e-15)
(-8.09214e-16 2.86653e-15 -1.13282e-23)
(9.56948e-16 7.50653e-16 -6.83545e-16)
(-1.8191e-15 1.28149e-15 2.91659e-15)
(-6.83568e-16 2.73427e-16 2.73427e-16)
(1.95948e-15 2.07441e-23 2.00505e-15)
(0 -1.86824e-15 8.76262e-24)
(-1.99608e-16 3.00999e-20 -9.56996e-16)
(0 -1.77731e-15 -8.20299e-16)
(-9.57056e-16 2.29884e-24 8.06912e-24)
(1.77702e-15 -1.10759e-15 1.82258e-16)
(-1.22842e-15 1.49517e-15 1.27583e-15)
(9.6237e-16 2.01589e-16 -1.25468e-23)
(6.8534e-16 -7.70888e-16 -5.92367e-16)
(-1.77168e-15 5.46808e-16 -4.35744e-23)
(3.64221e-16 -1.68048e-15 -9.11391e-16)
(-5.97038e-16 2.64869e-15 1.27601e-15)
(0 1.27603e-15 6.28431e-24)
(0 -1.77306e-23 3.19e-16)
(-1.28243e-15 -7.65623e-16 4.4078e-24)
(1.2358e-15 1.29806e-15 -8.65813e-16)
(0 7.41551e-16 9.57011e-16)
(2.23261e-15 -2.32434e-17 -2.23261e-15)
(-1.59121e-15 5.36524e-16 9.00094e-24)
(-4.55662e-16 -4.28086e-16 1.36694e-16)
(5.47646e-16 3.78209e-16 3.16967e-24)
(1.38502e-16 -1.34767e-15 -5.92373e-16)
(7.03805e-18 -8.59953e-16 3.50878e-15)
(-2.71867e-16 -2.5463e-15 -8.20239e-16)
(-8.12926e-16 5.55029e-18 -1.95952e-15)
(5.4873e-16 1.27603e-15 8.20308e-16)
(0 -2.41526e-15 2.55198e-15)
(0 9.56971e-16 2.55192e-15)
(0 -5.34447e-16 2.3241e-15)
(0 2.81567e-15 2.5514e-15)
(-8.22523e-16 -2.53386e-15 -1.00088e-24)
(4.52787e-16 3.20321e-15 -9.56789e-16)
(5.14711e-17 -2.65586e-15 2.96167e-15)
(-1.50492e-20 -2.48669e-15 8.51183e-24)
(1.24497e-15 2.56294e-15 1.68598e-15)
(-2.66097e-16 -1.31099e-16 2.09617e-15)
(-4.59103e-17 7.3106e-16 -1.68613e-15)
(-1.96789e-15 -7.19618e-16 -1.27607e-15)
(0 -2.73437e-16 1.59505e-15)
(8.20295e-16 1.59502e-15 -1.77731e-15)
(-9.56996e-16 2.61805e-23 8.03402e-24)
(-3.18906e-16 -1.55902e-15 1.55261e-23)
(-2.78335e-16 2.22718e-15 -4.55582e-17)
(-1.24445e-16 -1.31493e-15 2.23245e-15)
(-9.6541e-16 -2.25534e-16 -7.28989e-16)
(8.36305e-16 5.78851e-15 1.27578e-15)
(-5.95043e-16 -3.45646e-15 2.91625e-15)
(9.58444e-16 1.87215e-15 -2.6429e-15)
(-3.1967e-16 -3.09678e-15 -6.37961e-16)
(7.00929e-18 -7.19659e-16 1.276e-15)
(-1.81918e-15 1.09968e-15 1.27603e-15)
(3.19017e-16 -1.27607e-15 -1.27607e-15)
(0 1.54945e-15 -3.59045e-24)
(9.56634e-16 -1.8642e-15 2.18659e-15)
(-6.56269e-16 1.50662e-15 -8.65583e-16)
(1.00421e-15 -1.04545e-15 -3.82699e-15)
(8.32666e-16 -9.7621e-16 -2.68814e-15)
(-8.46506e-16 9.37326e-16 -1.27576e-15)
(-1.25909e-15 9.6356e-16 5.46781e-16)
(1.43779e-15 -7.69283e-17 2.2328e-15)
(1.19113e-15 1.28769e-15 1.27593e-15)
(-4.72933e-16 1.83244e-15 -1.82286e-15)
(-2.29107e-16 -1.26654e-15 1.27602e-15)
(1.23723e-15 1.51284e-15 -1.27607e-15)
(-1.13935e-15 2.00526e-15 -1.36722e-16)
(-1.27543e-15 -7.92859e-17 1.00212e-15)
(-5.71706e-16 -2.84698e-16 -3.14325e-15)
(-2.04369e-16 7.30123e-16 1.13892e-15)
(-5.80054e-17 -6.90748e-16 -1.27565e-15)
(5.39425e-16 -1.73434e-15 1.27574e-15)
(8.05821e-16 -2.09218e-15 -2.73393e-16)
(-1.31246e-15 1.64715e-15 -3.18964e-16)
(3.79237e-16 1.0909e-15 5.01258e-16)
(3.64085e-16 1.83242e-15 4.55708e-16)
(1.4739e-15 1.1033e-15 -4.10148e-16)
(-1.9737e-15 -7.20269e-16 6.5164e-25)
(1.13938e-15 -1.03506e-15 1.54955e-15)
(-8.65408e-16 4.09719e-16 1.41198e-15)
(2.47148e-16 -1.36148e-15 1.27542e-15)
(1.72312e-15 -1.29653e-15 -1.27551e-15)
(-2.183e-15 -1.4503e-15 -3.65277e-23)
(1.35691e-16 -6.24139e-16 1.82241e-15)
(1.0531e-15 2.788e-15 -1.27578e-15)
(-5.95454e-18 -3.70257e-16 -5.92373e-16)
(-1.04239e-15 -3.09718e-15 2.7342e-16)
(-6.99826e-16 9.66219e-16 -3.82803e-15)
(1.1754e-15 2.72582e-15 -1.27603e-15)
(1.38889e-15 -1.3672e-16 4.55734e-16)
(-2.23313e-15 -3.05851e-16 2.35135e-23)
(-4.55451e-17 2.00474e-15 -1.27526e-15)
(-2.18048e-16 -2.13508e-16 3.50714e-15)
(-2.53413e-16 3.03051e-15 -3.64411e-16)
(-1.03525e-15 1.08695e-15 -8.6556e-16)
(-8.49546e-17 3.90466e-15 3.30652e-25)
(2.25536e-16 -2.18e-15 -2.09586e-15)
(8.87623e-16 3.93408e-15 -1.27591e-15)
(1.00205e-16 -1.25343e-15 1.27593e-15)
(-1.20554e-15 -3.5915e-16 2.41531e-15)
(-4.48472e-16 -1.44518e-15 -1.27605e-15)
(1.46242e-15 1.10694e-15 -3.37244e-15)
(-1.27607e-15 -3.59164e-24 -4.10167e-16)
(-2.36823e-15 2.06021e-15 5.82675e-24)
(2.56469e-17 -1.35209e-15 6.83176e-16)
(7.39347e-16 -7.96364e-16 -4.09943e-16)
(1.00519e-15 -8.61923e-16 -6.83308e-16)
(1.1987e-15 -1.63216e-15 -2.4146e-15)
(1.56612e-15 1.09759e-15 2.23256e-15)
(9.1622e-17 -4.31784e-15 3.05294e-15)
(-1.50066e-15 7.30739e-16 -2.77964e-15)
(-1.58708e-15 -2.81683e-15 1.00257e-15)
(8.8125e-16 -2.72112e-15 -5.92441e-15)
(1.90752e-15 -1.50752e-15 8.65884e-16)
(0 -9.5707e-16 1.27609e-15)
(-1.63949e-15 -1.66527e-15 6.83123e-16)
(5.35374e-16 1.03345e-15 -3.50692e-15)
(-4.50427e-17 -1.70582e-16 -4.09938e-16)
(-2.14834e-15 4.10657e-16 -1.27549e-15)
(1.25062e-15 6.56254e-16 -3.37131e-15)
(1.77936e-15 -1.10171e-15 -1.36688e-16)
(-5.59731e-16 8.0375e-16 -3.18957e-16)
(4.99843e-16 -1.42053e-15 -2.09616e-15)
(-1.52332e-15 7.25223e-16 8.65869e-16)
(1.54828e-15 3.27758e-15 6.38008e-16)
(-6.30524e-16 3.01198e-20 1.36721e-15)
(0 9.57072e-16 1.6407e-15)
(1.82164e-16 1.91269e-15 4.55411e-17)
(-8.74599e-16 8.19743e-16 1.27525e-15)
(-1.17386e-16 1.41087e-23 -7.21266e-24)
(-2.51612e-16 1.69181e-25 -1.2755e-15)
(-7.79819e-16 4.10034e-16 -6.83389e-16)
(-6.64588e-16 2.55433e-24 2.41485e-15)
(8.66447e-16 -6.01883e-20 -2.55169e-15)
(5.03618e-16 -1.23038e-15 3.91898e-15)
(-2.92519e-16 -3.98961e-24 3.78255e-15)
(-2.85128e-16 3.01117e-20 1.27603e-15)
(-2.02979e-16 1.0938e-15 -4.55736e-16)
(4.55749e-16 -1.76299e-24 -1.6407e-15)
(2.09491e-15 -1.20387e-15 3.37007e-15)
(-8.12282e-16 7.4312e-16 -1.49682e-23)
(5.5766e-16 5.80623e-16 -2.86956e-15)
(5.60662e-16 -1.23077e-15 7.28851e-16)
(-2.91318e-16 -1.20292e-15 -1.36675e-16)
(-2.03326e-15 1.10171e-15 5.20901e-23)
(7.2238e-16 -1.48729e-15 2.68835e-15)
(5.24596e-16 2.24071e-15 3.82777e-15)
(-4.22198e-16 -3.15045e-16 2.09631e-15)
(6.97821e-17 -1.3635e-15 2.55203e-15)
(-5.32548e-16 3.01006e-20 -2.09639e-15)
(1.36725e-16 2.86459e-24 1.36725e-16)
(2.2316e-15 -1.10413e-15 3.52603e-23)
(-5.52634e-18 -4.24049e-16 -2.55052e-15)
(-5.68187e-16 1.20649e-15 -4.12705e-23)
(-3.41104e-16 -1.05146e-15 -9.56632e-16)
(1.43384e-15 4.02035e-16 -8.20053e-16)
(-1.35735e-15 -1.09759e-15 2.23256e-15)
(9.03978e-16 2.5406e-15 -9.11325e-16)
(1.84875e-16 -3.20627e-16 -6.83519e-16)
(-8.16812e-16 3.5602e-16 1.13928e-15)
(-1.72412e-17 -9.70109e-16 -3.19007e-15)
(1.34079e-16 -4.06512e-16 3.60026e-15)
(1.50397e-15 2.05086e-15 2.64334e-15)
(-4.55451e-17 -2.00474e-15 1.32081e-15)
(2.18148e-16 -1.42628e-15 2.73284e-16)
(-1.88124e-15 -3.03041e-15 -1.45764e-15)
(-7.03022e-16 6.89871e-16 -3.05224e-15)
(6.28546e-16 -3.49458e-15 -9.56754e-16)
(1.69392e-15 1.3601e-15 1.76959e-23)
(4.01214e-16 -1.47348e-15 1.27591e-15)
(-5.89049e-16 1.66354e-15 -2.68857e-15)
(-1.82527e-15 3.59049e-16 1.38342e-23)
(9.50127e-16 1.44525e-15 2.09637e-15)
(1.57318e-15 -1.10685e-15 1.36721e-16)
(-2.23313e-15 -2.05083e-15 1.40825e-24)
(1.36643e-16 3.11345e-19 2.55068e-15)
(1.41884e-15 2.86473e-15 4.55506e-16)
(3.9416e-16 2.38972e-15 1.68479e-23)
(-5.58461e-16 2.95368e-15 -2.30928e-23)
(-6.96729e-16 1.5809e-15 1.27569e-15)
(7.53139e-16 -2.51477e-15 -1.0024e-15)
(-1.55129e-15 3.70147e-16 -2.09609e-15)
(1.42252e-15 2.68705e-15 -1.27596e-15)
(-6.47701e-16 1.08451e-15 -2.55202e-15)
(-8.87937e-16 -9.48497e-16 -2.55205e-15)
(-1.12835e-16 9.57042e-16 1.27606e-15)
(-8.20335e-16 1.69128e-16 -4.10167e-16)
(-5.92162e-16 -1.15076e-15 2.09534e-15)
(1.35926e-15 -5.35113e-16 1.27552e-15)
(-1.4013e-15 -2.50681e-15 -1.74863e-23)
(1.08448e-15 1.51058e-15 -1.7768e-15)
(-1.28133e-15 -1.54613e-15 2.55147e-15)
(-5.00554e-16 1.40868e-15 8.2018e-16)
(-3.05854e-16 -3.28764e-15 3.00738e-15)
(-4.88581e-16 -2.73138e-15 -1.27593e-15)
(3.91525e-16 -2.92601e-15 -1.13927e-15)
(1.75083e-15 -6.93066e-16 1.27602e-15)
(-1.97256e-15 5.8355e-16 1.36719e-16)
(-9.57076e-16 2.81256e-15 1.24952e-23)
(1.36662e-16 1.7274e-15 2.09548e-15)
(2.53561e-17 -3.28345e-15 -7.28912e-16)
(7.28929e-16 9.08787e-16 -2.55133e-15)
(-1.57086e-15 -5.27323e-16 1.13904e-15)
(6.09698e-16 -6.64235e-16 -1.41245e-15)
(-1.23801e-15 2.6651e-16 -2.55164e-15)
(7.16535e-16 -1.96476e-16 1.27589e-15)
(-6.65692e-16 7.92203e-17 -5.0126e-16)
(2.77809e-16 -1.83243e-15 5.9243e-16)
(3.36061e-15 1.40324e-15 3.37234e-15)
(-1.06425e-15 -2.82268e-16 -1.27607e-15)
(0 -2.68887e-15 1.50394e-15)
(-3.18906e-16 2.51562e-15 -9.56717e-16)
(1.0217e-15 -3.13869e-16 -1.13896e-15)
(3.83625e-16 1.31493e-15 -3.08561e-23)
(-1.75645e-15 -5.94528e-16 -2.23253e-15)
(4.53537e-16 -2.09772e-15 -2.55155e-15)
(1.57208e-15 3.45617e-15 3.91872e-15)
(-1.41433e-15 1.7842e-16 -3.1897e-15)
(3.68237e-16 4.19033e-15 1.73161e-15)
(-1.90629e-15 1.26643e-15 2.04129e-24)
(2.75294e-16 -1.50978e-15 1.27603e-15)
(1.13935e-15 1.13935e-15 -4.55738e-17)
(-9.57011e-16 -2.50646e-15 -3.74268e-24)
(-1.2757e-15 -2.81567e-15 4.57158e-24)
(1.95974e-17 3.21728e-15 -2.78879e-23)
(5.97769e-16 -3.20321e-15 -1.36684e-16)
(-2.0986e-15 1.01553e-15 -2.73385e-16)
(1.95381e-15 2.89667e-15 -2.55163e-15)
(-8.2203e-16 -2.56281e-15 1.27588e-15)
(7.3096e-16 -5.60711e-18 -3.18982e-16)
(-6.83565e-16 -1.82478e-15 1.27599e-15)
(-6.87563e-16 3.09473e-16 -4.14722e-15)
(2.73437e-16 -1.36719e-16 -8.20312e-16)
(8.20295e-16 -9.11438e-17 5.46863e-16)
(-9.56996e-16 -1.40455e-23 2.03409e-23)
(8.20143e-16 2.31878e-17 -1.41247e-15)
(-1.24299e-15 -1.35678e-15 -3.37181e-15)
(-6.43349e-16 -6.65474e-16 -3.23509e-15)
(1.64708e-15 1.53549e-15 -4.32875e-15)
(-8.293e-16 6.64217e-16 -7.29075e-16)
(-4.97499e-16 8.59924e-16 1.28322e-23)
(5.32967e-17 2.54636e-15 -5.68686e-24)
(1.23586e-15 2.67892e-16 -1.27597e-15)
(-1.23046e-15 9.11453e-17 9.57026e-16)
(1.36713e-16 3.23554e-15 2.41526e-15)
(6.78038e-16 -2.13583e-23 2.82534e-15)
(-1.77725e-15 5.34507e-16 2.46081e-15)
(-8.20163e-16 -8.06102e-16 1.27581e-15)
(1.5456e-15 -1.49533e-15 4.55655e-16)
(-1.27586e-15 7.16285e-17 -4.10097e-16)
(1.27587e-15 -1.00623e-15 1.27587e-15)
(-4.10091e-16 -2.65964e-24 -2.55177e-15)
(2.73417e-16 1.68047e-15 -8.20252e-16)
(-1.35212e-16 -1.55497e-15 -1.41272e-15)
(-3.03573e-32 -1.27603e-15 4.19266e-15)
(0 2.28099e-23 -1.41272e-15)
(-2.25692e-16 -6.01503e-16 -8.20261e-16)
(0 -2.93855e-15 1.27593e-15)
(0 -7.41512e-16 1.14512e-23)
(1.09356e-15 1.96341e-15 -2.36937e-15)
(1.36699e-16 7.29063e-16 1.27586e-15)
(6.83497e-16 2.68842e-15 -1.27586e-15)
(-9.97039e-16 -4.05964e-16 -2.55182e-15)
(-1.50508e-20 -8.87262e-16 -2.30112e-23)
(-2.71593e-16 -1.28156e-15 -1.95958e-15)
(1.54756e-15 2.73427e-16 -3.15749e-23)
(-2.78879e-16 -3.11268e-23 4.10124e-16)
(-4.10103e-16 2.14165e-15 -2.68845e-15)
(-5.09931e-16 8.20312e-16 -5.46855e-16)
(8.20299e-16 5.46866e-16 -8.20299e-16)
(-2.73445e-16 -1.37591e-23 7.42348e-24)
(0 8.20196e-16 1.27586e-15)
(0 -1.18473e-15 -2.09606e-15)
(2.78867e-16 -1.13918e-15 -1.13918e-15)
(-2.67951e-16 6.9024e-24 -2.24508e-23)
(0 -1.09368e-15 2.27851e-16)
(5.46829e-16 -1.9139e-15 -1.59492e-15)
(0 1.2759e-15 -3.05305e-15)
(0 1.3992e-23 3.91907e-15)
(-3.25143e-16 -2.55192e-15 1.3671e-16)
(9.50927e-16 -1.27605e-15 7.86045e-24)
(0 9.57015e-16 -2.73433e-16)
(-9.57056e-16 6.17488e-24 8.94293e-24)
(-1.64036e-15 -1.68593e-15 -2.55167e-15)
(1.36699e-16 -1.73152e-15 6.60757e-24)
(1.28318e-15 -2.9163e-15 -4.55672e-16)
(0 1.27589e-15 1.09362e-15)
(0 3.18969e-16 2.64657e-24)
(-5.05646e-16 2.32399e-15 -2.86368e-23)
(5.46843e-16 3.23549e-15 -1.59496e-15)
(1.38243e-16 -2.68869e-15 1.27599e-15)
(-2.71884e-16 -1.27601e-15 -1.27601e-15)
(0 1.27601e-15 -3.57801e-23)
(-1.81914e-15 6.83561e-16 4.10137e-16)
(1.36722e-16 -2.23313e-15 2.87117e-15)
(1.13912e-15 3.91871e-16 1.27581e-15)
(-1.54737e-15 1.00621e-15 1.27583e-15)
(-1.8172e-15 4.1405e-16 -5.46796e-16)
(1.96121e-15 1.08695e-15 1.27587e-15)
(2.78858e-16 -2.28451e-15 9.11347e-17)
(5.00975e-16 1.42139e-15 -2.23291e-15)
(-5.51471e-16 -9.48202e-16 2.36973e-15)
(-2.00519e-15 2.55205e-15 -3.82808e-15)
(1.276e-15 3.19e-16 -3.11935e-23)
(-5.98875e-16 1.04498e-23 -3.50889e-15)
(1.09918e-15 9.70012e-17 2.32402e-15)
(-5.46863e-16 1.54517e-16 1.27601e-15)
(2.09582e-15 -3.38977e-16 1.43618e-23)
(1.06613e-15 -3.45049e-16 -2.23252e-15)
(-1.49995e-15 -6.0847e-16 -2.16941e-23)
(1.13187e-15 -1.47465e-15 5.92346e-16)
(9.78899e-16 4.49757e-16 -2.55172e-15)
(-1.13549e-15 -2.63724e-15 2.55196e-15)
(1.35473e-15 -2.72937e-15 1.82279e-16)
(-9.56986e-16 -2.48053e-15 -3.37224e-15)
(-1.92704e-15 -1.08489e-15 1.27603e-15)
(2.23301e-15 -1.40252e-23 -2.55202e-15)
(0 1.82283e-16 1.27598e-15)
(0 -1.45326e-25 1.07366e-23)
(-1.3668e-16 -2.49846e-16 -3.1892e-16)
(-1.31225e-15 7.52602e-17 -1.13581e-23)
(3.29685e-18 2.87292e-16 -2.68825e-15)
(1.03599e-15 1.13334e-16 1.27581e-15)
(1.41959e-16 -1.56481e-15 4.1009e-16)
(-1.77843e-15 1.33268e-15 -1.59494e-15)
(-1.13922e-15 2.97341e-15 1.54932e-15)
(8.69191e-16 2.14735e-15 -4.44568e-23)
(6.36982e-16 1.14833e-15 -5.92417e-16)
(-5.97102e-16 -8.07237e-16 -1.41275e-15)
(0 -1.46589e-23 9.075e-24)
(-2.7344e-16 -1.27605e-15 1.05693e-23)
(-4.55577e-17 -5.78325e-16 -5.64746e-24)
(-1.22989e-15 1.54011e-15 1.09343e-15)
(8.44918e-16 -9.0948e-16 -2.41469e-15)
(-1.50275e-15 8.62707e-16 -1.41241e-15)
(4.07024e-16 2.69701e-15 2.09598e-15)
(1.3557e-16 -1.32848e-16 -3.09865e-15)
(4.61207e-16 2.75382e-16 -6.8354e-16)
(-5.43102e-16 -1.76703e-16 -5.92414e-16)
(-5.96733e-16 1.83245e-15 1.27602e-15)
(-1.47097e-15 -6.70563e-16 2.05076e-15)
(-3.25507e-16 -2.04233e-15 -3.19014e-16)
(9.57066e-16 1.41281e-15 -1.36724e-16)
(2.09547e-15 1.30568e-15 -1.91326e-15)
(-3.66384e-16 2.41385e-16 8.65573e-16)
(-3.3467e-16 7.79126e-16 -9.5672e-16)
(2.4098e-16 -1.267e-15 1.68572e-15)
(2.54578e-16 9.29441e-16 -3.8274e-15)
(-6.47602e-16 -1.29189e-15 -1.41261e-15)
(1.44445e-15 2.08003e-16 -1.4126e-15)
(1.36127e-16 -1.26416e-15 -3.82774e-15)
(-1.32226e-15 -5.40989e-16 -2.09628e-15)
(7.32529e-16 1.69198e-15 -3.18992e-16)
(-4.6262e-17 4.2255e-16 2.23304e-15)
(1.27608e-15 -1.19744e-16 -1.27608e-15)
(-1.27543e-15 1.10675e-16 5.92164e-16)
(-4.1464e-16 -6.57245e-16 -1.41213e-15)
(4.68968e-16 3.40047e-15 1.27554e-15)
(7.68308e-16 1.53631e-15 -1.41231e-15)
(-2.28635e-15 -9.75774e-16 7.29001e-16)
(1.61202e-15 1.59142e-15 -1.41256e-15)
(-3.98083e-16 3.7143e-16 3.1898e-16)
(-1.14169e-15 1.82207e-15 -2.42379e-23)
(1.70767e-15 -1.08849e-15 7.29161e-16)
(-8.41589e-16 -2.36389e-16 8.65894e-16)
(-1.18503e-15 -7.69144e-24 2.15391e-23)
(1.82292e-16 1.69786e-17 1.36719e-16)
(-9.56465e-16 -1.35786e-15 1.13865e-15)
(5.42296e-16 2.11314e-16 2.09519e-15)
(5.56389e-16 -3.87887e-15 -2.32313e-15)
(-1.11302e-15 2.99039e-16 3.50781e-15)
(1.79475e-15 -2.76627e-15 -2.68805e-15)
(-8.33969e-16 1.01644e-16 5.46791e-16)
(-1.43714e-15 8.8663e-16 1.27592e-15)
(2.29077e-16 3.5957e-16 -1.27598e-15)
(-1.15102e-15 1.47681e-15 -1.27604e-15)
(3.10895e-16 7.1936e-17 1.27608e-15)
(2.03088e-15 -1.80982e-15 1.27609e-15)
(-2.55217e-15 -1.74053e-23 -1.27609e-15)
(4.09874e-16 3.08451e-16 -1.54841e-15)
(-9.1395e-16 -1.21101e-15 -4.76964e-24)
(8.44563e-16 6.21817e-16 1.68531e-15)
(8.94846e-16 -1.78092e-15 -1.91327e-15)
(1.44337e-15 1.53914e-15 -1.27566e-15)
(1.02405e-16 -2.17214e-16 1.27583e-15)
(-1.57226e-15 6.64894e-16 9.56925e-16)
(2.31481e-16 -2.55617e-15 -2.73425e-16)
(-5.55528e-16 2.0277e-15 1.27603e-15)
(6.0701e-17 7.31452e-16 -2.09642e-15)
(-6.29558e-16 1.06142e-15 -2.41549e-15)
(3.19031e-16 -2.8802e-17 -7.65798e-24)
(2.23141e-15 -1.34091e-15 -1.27509e-15)
(-3.84486e-16 2.19795e-16 -2.23157e-15)
(5.24639e-17 1.6027e-15 1.6397e-15)
(3.60446e-16 -6.12205e-16 1.00216e-15)
(-4.94437e-16 -1.41706e-16 1.27567e-15)
(2.09197e-16 1.67151e-15 -2.97231e-23)
(-9.93539e-16 -1.39029e-15 -2.05154e-23)
(8.93457e-16 7.4813e-16 -1.27601e-15)
(4.43041e-16 -8.60634e-16 -1.23046e-15)
(-2.95916e-16 -2.04129e-15 -2.09646e-15)
(-1.94698e-15 -1.44524e-15 8.20356e-16)
(4.10187e-16 -4.84566e-16 1.68633e-15)
(1.27502e-15 2.07996e-15 3.8462e-24)
(5.3994e-16 1.71904e-15 2.23145e-15)
(-6.00247e-16 2.24456e-16 1.22972e-15)
(7.67637e-16 -4.71963e-16 -1.36655e-16)
(-1.31659e-16 -1.15464e-15 2.68794e-15)
(1.72871e-16 -5.27135e-16 -2.55164e-15)
(-8.78731e-16 -2.17955e-15 -4.55703e-15)
(6.1246e-16 -2.81133e-15 -4.43221e-24)
(-1.01561e-16 8.84716e-16 1.36719e-16)
(6.69359e-17 2.38361e-15 2.32434e-15)
(4.2545e-16 3.15418e-16 -8.65944e-16)
(-1.27615e-15 6.83654e-16 -4.55768e-17)
(4.55354e-16 -2.46901e-15 -5.46425e-16)
(-1.60635e-15 -1.91227e-15 3.36982e-15)
(1.12713e-15 -1.1119e-15 1.68513e-15)
(2.27311e-17 1.40778e-15 -1.54874e-15)
(-1.18297e-16 -7.86962e-16 2.14119e-15)
(-1.13937e-15 4.97856e-16 1.41249e-15)
(9.19544e-16 1.11148e-15 -1.27596e-15)
(-1.27212e-16 1.23901e-15 3.37228e-15)
(1.49087e-16 1.18491e-15 -4.55733e-16)
(2.2646e-16 9.57029e-16 4.19296e-15)
(1.76544e-15 8.2039e-16 -8.65967e-16)
(1.09385e-15 9.57116e-16 2.27885e-15)
(-2.54996e-15 -5.46421e-16 -2.86871e-15)
(-1.70286e-15 2.51922e-24 -3.36979e-15)
(1.84484e-15 1.88797e-24 -3.64356e-16)
(-1.74164e-15 -6.01775e-20 1.27545e-15)
(1.72493e-15 6.83239e-16 -1.41228e-15)
(-4.63058e-16 4.10185e-16 -1.00238e-15)
(5.03566e-16 2.87084e-15 1.73162e-15)
(1.09598e-15 1.64058e-15 1.41273e-15)
(-7.03432e-16 2.89015e-24 -9.11459e-16)
(-1.61344e-15 -6.0215e-20 3.57794e-23)
(4.95074e-16 -1.64078e-15 -1.27616e-15)
(0 -1.64077e-15 1.03484e-23)
(-4.55354e-16 2.87869e-15 -2.81663e-24)
(-3.06315e-16 1.91229e-15 -1.12514e-23)
(-4.71675e-16 1.11175e-15 -1.29726e-23)
(4.36406e-16 -1.13438e-15 -1.27543e-15)
(1.66335e-16 1.06037e-15 -2.73343e-16)