/*--------------------------------*- C++ -*----------------------------------*\
| =========                 |                                                 |
| \\      /  F ield         | OpenFOAM: The Open Source CFD Toolbox           |
|  \\    /   O peration     | Version:  4.1                                   |
|   \\  /    A nd           | Web:      www.OpenFOAM.org                      |
|    \\/     M anipulation  |                                                 |
\*---------------------------------------------------------------------------*/
FoamFile
{
    version     2.0;
    format      ascii;
    class       volVectorField;
    location    "6e-05";
    object      U;
}
// * * * * * * * * * * * * * * * * * * * * * * * * * * * * * * * * * * * * * //

dimensions      [0 1 -1 0 0 0 0];

internalField   nonuniform List<vector> 
12360
(
(-8.50577e-16 -2.5011e-15 -4.81993e-15)
(1.1341e-15 -6.23756e-15 6.80461e-15)
(7.01729e-15 -8.22228e-15 -6.7692e-15)
(-3.8985e-15 -4.32379e-15 -1.04196e-14)
(-4.82002e-15 3.6859e-15 -7.03764e-16)
(3.97085e-16 -5.12892e-15 3.62518e-15)
(1.47477e-15 -2.23299e-15 2.41021e-15)
(-1.69129e-15 -4.36494e-15 -7.05884e-15)
(-2.68876e-15 -2.8356e-16 1.98492e-15)
(1.70143e-15 -5.67144e-16 1.13429e-15)
(-3.11916e-15 -3.11916e-15 -1.13424e-15)
(-4.67894e-15 6.91207e-15 6.91207e-15)
(-9.97399e-16 5.05788e-15 -2.15175e-15)
(-2.40996e-15 1.70115e-15 1.44294e-15)
(-1.39178e-17 1.98471e-15 4.23776e-15)
(2.82152e-15 -3.26071e-15 4.2531e-16)
(-4.53676e-15 -1.70128e-15 -9.74694e-15)
(-3.11895e-15 1.98479e-15 1.14125e-14)
(9.10907e-15 -1.93275e-15 -1.49868e-15)
(-1.85679e-15 -1.02004e-15 -5.671e-16)
(-2.85387e-15 3.82788e-15 1.27596e-15)
(5.84329e-16 6.06126e-15 3.96995e-15)
(-2.5166e-15 8.5068e-16 -2.26848e-15)
(8.86163e-16 7.37287e-15 -9.92502e-16)
(-6.83483e-16 -6.70564e-15 -4.25279e-15)
(4.40474e-16 1.65959e-15 -4.60726e-16)
(2.43197e-15 -5.97894e-15 1.84294e-15)
(-2.83531e-16 -6.49083e-15 -1.1645e-15)
(-1.27587e-15 2.14671e-15 -1.84293e-15)
(3.19665e-15 8.61242e-15 3.9847e-15)
(3.11903e-15 4.82032e-15 -8.79e-15)
(-1.38267e-15 -3.10157e-15 5.24573e-15)
(3.51504e-17 5.83548e-16 -1.84312e-15)
(-1.70135e-15 -5.63573e-15 -4.67872e-15)
(-5.74065e-15 8.22299e-15 -1.42491e-22)
(-1.55965e-15 -6.17782e-15 9.64145e-15)
(-4.07037e-15 -3.97924e-15 1.09556e-14)
(-1.46304e-15 -2.12631e-16 7.33579e-15)
(8.93024e-15 2.66201e-15 -3.68569e-15)
(2.36651e-15 1.0901e-14 -6.0957e-15)
(1.15537e-15 -1.7548e-16 1.01263e-15)
(1.10883e-15 1.84299e-15 2.6936e-15)
(2.11759e-15 -9.60981e-15 -1.09212e-14)
(-3.55819e-15 -1.42278e-15 8.50632e-15)
(-2.37431e-15 -3.86117e-15 -4.3344e-15)
(-1.94896e-15 -6.92963e-15 -7.08904e-15)
(3.4432e-16 1.70134e-15 -1.02081e-14)
(-7.74205e-15 9.62059e-16 6.03566e-15)
(1.41748e-16 4.67013e-15 -2.83497e-15)
(-1.65304e-15 1.83332e-15 -4.11072e-15)
(1.19517e-15 -7.22456e-16 -3.11854e-15)
(-3.48118e-15 -6.94614e-15 -1.70109e-15)
(-2.01248e-15 2.59802e-15 -8.04999e-15)
(-1.25402e-15 -2.67592e-15 6.94672e-15)
(3.8278e-15 -2.43035e-16 8.50117e-15)
(9.28763e-16 -4.39502e-15 -1.98991e-15)
(-2.12664e-15 8.50654e-16 1.06332e-14)
(4.15149e-15 3.84582e-15 -1.11953e-14)
(-5.37073e-16 -7.25811e-15 -2.69389e-15)
(-1.66599e-15 3.37248e-15 -4.25358e-16)
(8.85876e-16 -8.04604e-15 4.53568e-15)
(-1.41741e-15 -3.08075e-15 1.04888e-14)
(-2.32807e-15 -1.51655e-15 -5.38636e-15)
(7.69723e-15 4.88327e-15 8.07992e-15)
(-2.70476e-15 5.2582e-15 1.70106e-15)
(3.3219e-15 -1.79075e-15 2.37456e-15)
(8.18183e-16 -2.71255e-15 1.20302e-14)
(1.12031e-15 2.98234e-15 3.11905e-15)
(4.46845e-16 2.97724e-15 -1.41773e-16)
(-4.10141e-16 -2.83554e-16 -1.08814e-14)
(2.07269e-17 1.80585e-15 -9.72202e-16)
(-6.52206e-15 -3.54831e-15 5.246e-15)
(-3.72042e-15 8.43073e-16 -1.81212e-15)
(5.02738e-15 1.09513e-14 5.95274e-15)
(-1.54853e-15 7.49254e-15 5.56329e-15)
(-1.23262e-15 7.67529e-16 1.23218e-14)
(-3.66539e-15 -4.3585e-15 1.25248e-14)
(-5.6966e-15 -1.2948e-15 1.12906e-15)
(3.46377e-15 -7.30337e-15 4.34416e-15)
(7.44673e-15 -1.51243e-15 -9.78243e-15)
(1.40882e-16 1.27598e-15 -3.26084e-15)
(-4.68554e-15 -7.08888e-15 -9.4991e-15)
(-3.45915e-16 3.54448e-15 -9.92455e-16)
(-1.97481e-15 -2.58104e-15 9.86392e-15)
(-7.03554e-15 -3.82704e-15 8.554e-16)
(-6.39074e-17 -3.34833e-15 8.56418e-15)
(4.33581e-15 -4.03061e-15 -6.35258e-15)
(-4.42351e-15 -1.71823e-15 -5.95309e-15)
(-4.90719e-15 4.54714e-15 8.75789e-15)
(-2.08115e-15 1.28638e-14 -2.3289e-16)
(-3.25038e-15 5.44912e-15 -1.41764e-16)
(3.66799e-15 -8.58925e-16 6.37967e-15)
(3.09149e-15 -2.0736e-15 1.3527e-22)
(5.09717e-15 1.41781e-15 -5.67123e-16)
(3.65539e-15 -1.55959e-15 -9.21574e-15)
(-7.78265e-15 6.21802e-15 4.20273e-16)
(9.03927e-15 -1.4733e-15 7.74867e-15)
(5.07817e-15 -1.72248e-15 -9.92016e-16)
(3.87162e-15 -1.69689e-15 -2.23722e-15)
(-7.2524e-17 -3.79535e-15 -5.38596e-15)
(-2.39282e-15 -8.91688e-15 6.52027e-15)
(-1.34185e-16 7.42894e-15 -4.25267e-15)
(-9.73465e-16 -4.04014e-16 -7.08825e-16)
(1.16943e-15 1.99175e-15 -9.97438e-16)
(2.86846e-15 -2.58938e-15 -2.48103e-15)
(2.96393e-15 5.63898e-15 3.68625e-15)
(-1.71716e-15 -1.24767e-14 4.25343e-15)
(4.25348e-15 -8.92724e-15 -3.03819e-17)
(-2.12556e-15 1.88058e-14 -3.68431e-15)
(-5.13624e-15 -2.75032e-15 4.81308e-15)
(-7.99475e-15 -6.38314e-15 -5.24354e-15)
(-8.15489e-16 4.9046e-15 1.41729e-15)
(7.51841e-15 4.89059e-15 3.54353e-15)
(1.60804e-15 -1.42958e-14 -2.54647e-15)
(-5.71703e-15 8.63542e-15 7.35654e-15)
(-1.08532e-15 5.58031e-15 -6.66305e-15)
(3.16399e-15 -4.45579e-16 1.04407e-14)
(-1.26321e-15 -2.25399e-15 7.08896e-15)
(-7.00772e-15 -3.1192e-15 7.08909e-15)
(-5.81316e-15 -1.6204e-16 1.66597e-14)
(-3.93715e-15 -1.25059e-14 -1.55867e-15)
(-1.87466e-15 6.5014e-15 -3.57805e-15)
(3.4592e-15 2.80866e-15 -9.92e-16)
(2.45423e-15 2.14642e-16 -5.24389e-15)
(-1.03759e-14 5.56477e-15 4.96594e-15)
(-2.13663e-17 -5.48478e-16 1.84274e-15)
(3.94915e-15 -8.85176e-15 2.52136e-15)
(4.54408e-15 1.72893e-15 7.43275e-15)
(2.96129e-15 3.69633e-15 -3.96976e-15)
(-6.89572e-15 4.57239e-15 3.50904e-15)
(-1.17922e-15 3.54461e-17 1.41783e-15)
(4.12189e-15 2.29894e-15 3.26105e-15)
(4.49872e-15 -3.56953e-15 6.4571e-15)
(-2.5918e-15 1.51439e-14 -2.97569e-15)
(-5.55721e-15 7.90694e-16 1.41712e-15)
(2.27023e-15 -5.63163e-15 4.39344e-15)
(2.09548e-15 -4.12142e-15 1.13389e-15)
(-5.5442e-15 4.22798e-15 7.51268e-15)
(-7.42752e-17 6.39382e-15 -2.05052e-15)
(9.23978e-15 8.69323e-16 -3.54424e-15)
(-1.87834e-15 6.08831e-16 -2.5469e-15)
(-6.53874e-15 -8.5068e-16 -4.2534e-15)
(-1.90262e-15 7.93492e-15 1.84321e-15)
(1.52925e-15 6.29424e-15 -6.23348e-15)
(1.96342e-15 4.1495e-16 4.11408e-15)
(3.82681e-15 3.06642e-22 -2.83392e-15)
(-7.12629e-15 3.33022e-15 1.41708e-16)
(1.96241e-15 4.36802e-15 7.4808e-15)
(2.53248e-15 -2.83465e-16 -2.51575e-15)
(-1.42489e-15 -1.41747e-15 -4.21697e-15)
(-3.00906e-15 1.41258e-15 -2.56695e-15)
(4.07029e-15 -1.70121e-15 2.02019e-15)
(-2.80691e-15 -1.17418e-14 -9.48366e-15)
(3.57482e-16 1.27604e-15 8.22334e-15)
(6.48532e-15 4.93211e-15 -4.20293e-16)
(-1.16466e-15 2.84583e-15 -9.04894e-15)
(2.23165e-15 3.85287e-15 -4.28112e-15)
(7.89787e-16 -9.25326e-15 -3.25909e-15)
(2.20176e-15 3.46117e-15 -8.50271e-16)
(-1.03455e-15 4.75144e-15 -1.07103e-14)
(-4.92056e-15 1.28663e-15 4.66213e-15)
(1.33523e-15 -4.33938e-15 7.08743e-15)
(-9.9063e-16 -1.6194e-15 5.64526e-15)
(-4.1391e-15 2.67478e-15 -1.20504e-14)
(4.44541e-15 -8.62166e-16 6.48625e-15)
(5.03631e-15 1.13424e-15 4.25341e-16)
(-3.64149e-15 -9.64141e-15 -4.82071e-15)
(3.13953e-16 -6.46641e-15 -1.46849e-16)
(9.91879e-16 -4.54754e-16 -1.27527e-15)
(-1.57277e-15 -9.02647e-15 3.96774e-15)
(2.41338e-15 -2.02905e-15 -2.12571e-15)
(-2.2805e-15 -4.69422e-15 -1.31198e-14)
(-6.78729e-15 1.09776e-16 -6.66175e-15)
(4.35835e-15 -2.73716e-15 -4.28286e-15)
(7.21535e-15 3.31802e-15 1.04297e-15)
(-3.78118e-15 -2.56436e-15 -8.16692e-15)
(-1.86728e-16 9.43325e-15 -5.10398e-15)
(-1.02769e-14 -1.04967e-14 3.50904e-15)
(6.03955e-17 1.59e-15 8.79564e-15)
(3.86364e-15 3.70666e-15 4.13202e-15)
(3.59321e-16 -6.99951e-15 1.09062e-14)
(8.50892e-15 -3.02451e-15 2.26736e-15)
(4.87938e-18 6.31811e-15 5.23848e-15)
(-6.55826e-17 -5.89649e-15 3.4015e-15)
(2.30768e-15 -1.77739e-15 -1.11975e-14)
(-6.52425e-15 1.1597e-14 4.53606e-15)
(-1.56038e-15 -1.33948e-14 7.33122e-15)
(7.55321e-15 -4.04104e-15 6.37951e-15)
(-7.48676e-15 3.53425e-15 -1.95447e-15)
(3.53339e-15 2.6541e-15 -6.06613e-15)
(7.95044e-15 7.19036e-15 -1.68416e-14)
(-6.21826e-15 3.9092e-15 -2.26855e-15)
(3.82625e-15 1.09937e-15 7.08566e-16)
(3.84022e-15 1.02864e-14 -4.39321e-15)
(2.23189e-15 -4.8971e-15 -3.11793e-15)
(-3.17439e-15 -5.41775e-15 3.68513e-15)
(1.34258e-15 -4.58686e-16 1.41745e-16)
(-3.48253e-15 -3.83423e-15 -1.26568e-16)
(6.73551e-15 6.21129e-15 -8.78943e-15)
(5.00043e-15 7.85627e-15 -3.64546e-15)
(-4.43626e-15 8.82765e-16 -1.29014e-14)
(-1.80916e-15 2.4376e-15 4.37995e-15)
(-1.97426e-15 -6.83587e-16 6.63333e-15)
(2.82046e-15 -2.82552e-15 6.09159e-15)
(7.15702e-15 -3.36052e-15 2.07017e-15)
(-2.97222e-15 -5.8028e-15 -4.65665e-16)
(-4.4089e-15 -7.67705e-15 1.34644e-14)
(3.96918e-16 8.94676e-15 1.59255e-14)
(4.12133e-15 -8.63776e-15 1.55415e-15)
(1.19496e-15 -7.67984e-15 -6.73357e-15)
(-3.11157e-16 1.55335e-15 -1.9847e-15)
(-6.22496e-16 -1.00066e-14 -1.55948e-15)
(1.48165e-15 2.16487e-15 6.42039e-15)
(2.84249e-15 -4.96232e-15 -8.36506e-15)
(-5.15311e-15 -1.51908e-17 -2.26343e-15)
(-1.41779e-16 -5.08379e-15 -2.83558e-15)
(-2.12596e-15 6.60734e-15 -7.46616e-15)
(1.53539e-15 -1.14983e-14 4.30258e-16)
(2.0769e-15 4.42806e-15 -1.98436e-15)
(2.72195e-15 5.61107e-15 8.40355e-16)
(-3.10347e-15 5.49204e-15 2.72366e-15)
(-6.14695e-15 -1.81378e-15 1.17666e-14)
(4.12622e-15 3.10111e-15 -5.10362e-15)
(6.96001e-15 -5.97129e-15 -2.52156e-15)
(1.22398e-15 5.97483e-16 -1.3651e-14)
(-6.74456e-15 -5.07361e-15 5.05842e-15)
(-7.08897e-16 -1.4178e-16 1.27601e-15)
(-2.2685e-15 2.72824e-15 1.40161e-14)
(3.68524e-15 3.9352e-15 -2.40958e-15)
(8.14965e-16 7.33254e-15 3.40178e-15)
(3.23498e-15 -8.06767e-16 -6.02836e-23)
(-1.30486e-15 -4.75637e-15 -5.10311e-15)
(-1.59002e-15 -1.43087e-15 -2.69335e-15)
(4.40926e-15 1.3656e-15 -5.5592e-15)
(3.0172e-15 4.37813e-15 -4.60752e-16)
(-3.33902e-15 4.11147e-15 3.35197e-15)
(-5.49879e-15 -5.0684e-15 2.85066e-15)
(3.65583e-15 1.8431e-15 -3.43303e-15)
(4.7148e-15 -5.07161e-15 -2.55203e-15)
(-6.23849e-15 1.59403e-15 7.08919e-16)
(2.83497e-15 -3.39517e-15 2.40972e-15)
(-1.13181e-15 8.58526e-15 -3.68547e-15)
(1.93742e-15 4.91917e-15 -1.40233e-15)
(2.19015e-15 -5.67032e-16 1.04901e-14)
(-5.05348e-15 -3.32707e-15 -1.70113e-15)
(1.77606e-16 7.63774e-15 4.82017e-15)
(3.98357e-15 -6.2379e-15 7.08852e-15)
(-3.67195e-17 2.2684e-15 -5.56973e-16)
(-5.36722e-16 -1.16459e-15 -2.41525e-15)
(-3.0639e-15 7.46616e-15 4.11658e-15)
(1.4528e-15 3.43483e-15 1.41784e-15)
(-2.48126e-16 -8.50716e-16 7.0893e-16)
(5.99418e-15 5.85242e-15 1.09556e-14)
(4.10586e-15 -5.38666e-15 8.76346e-15)
(-3.22158e-15 -8.08739e-16 -2.3795e-16)
(1.57455e-15 -6.3802e-15 -5.24514e-15)
(2.01977e-15 -2.80174e-15 -1.1508e-22)
(2.72157e-15 7.59473e-15 -7.08841e-16)
(-4.64289e-15 4.78465e-15 -1.70121e-15)
(4.25316e-16 1.41772e-16 3.68607e-15)
(-1.66524e-15 3.62852e-15 3.36726e-15)
(-4.21742e-15 2.25089e-15 -6.94726e-15)
(2.51564e-15 -1.13423e-15 6.1775e-16)
(-9.9244e-16 2.69377e-15 1.13422e-15)
(-2.97695e-15 5.39454e-15 -9.92316e-16)
(1.7011e-15 -9.74022e-15 -3.79719e-15)
(4.58644e-15 1.47295e-15 -1.98471e-15)
(-1.26194e-15 3.2606e-15 4.53649e-15)
(5.49841e-15 6.94643e-15 -2.40999e-15)
(-4.50621e-16 -1.55945e-15 -2.27842e-16)
(-5.75704e-15 -7.08871e-16 6.69883e-15)
(1.47305e-15 -1.57712e-15 -5.10395e-15)
(-1.98711e-15 1.27484e-15 -8.60799e-16)
(-2.7108e-15 1.13424e-15 -2.69381e-15)
(4.82037e-15 -1.70131e-15 -1.1342e-15)
(7.0893e-16 2.41036e-15 -4.53715e-15)
(3.23016e-15 -9.92336e-16 -3.51368e-15)
(2.2682e-15 -4.25287e-16 5.41229e-15)
(1.41765e-16 -4.53648e-15 -2.41001e-15)
(-5.67081e-16 -1.98478e-15 4.67842e-15)
(5.67095e-16 -5.04309e-15 -3.2608e-15)
(-8.36674e-16 -9.15432e-15 -5.67082e-16)
(-3.10373e-15 3.2439e-15 4.39477e-15)
(1.54574e-15 4.58424e-15 2.41017e-15)
(4.1013e-16 -1.71647e-15 7.94944e-15)
(4.25351e-16 1.98497e-15 3.54966e-15)
(-2.8356e-16 1.55958e-15 -2.26848e-15)
(8.86163e-16 -4.53715e-15 -2.12679e-15)
(-1.1341e-15 7.65519e-15 -4.25288e-16)
(-3.54407e-15 4.11112e-15 1.27586e-15)
(4.20227e-16 -5.67054e-16 2.41504e-15)
(-1.40751e-15 7.235e-15 3.1188e-15)
(-2.83531e-16 -6.37438e-15 -1.31639e-16)
(-2.56091e-15 -2.09612e-15 -2.5113e-15)
(6.40578e-15 -4.11154e-15 -2.51654e-15)
(1.55963e-15 5.67138e-15 -9.49956e-15)
(-6.23832e-15 2.55204e-15 -1.02082e-14)
(9.92502e-16 -2.83572e-16 5.67144e-15)
(-1.56464e-15 3.11916e-15 5.51423e-15)
(-1.42292e-15 -5.39293e-15 9.35788e-15)
(-9.92336e-16 5.10344e-15 6.3793e-15)
(-2.091e-15 1.11081e-14 -3.79721e-15)
(3.09978e-15 5.11367e-15 -9.9742e-16)
(2.2293e-15 -4.96196e-15 -4.25311e-16)
(-7.08869e-16 -4.2279e-15 7.50894e-15)
(-2.88604e-16 8.50623e-16 1.4177e-15)
(4.0055e-15 4.03023e-15 -2.72901e-15)
(-8.6443e-16 2.41017e-15 -1.33066e-14)
(-5.2286e-15 4.26333e-15 8.5064e-16)
(2.28562e-15 5.38779e-15 1.41784e-16)
(-2.8356e-16 -3.26094e-15 -5.21548e-15)
(1.77233e-16 -9.92502e-16 1.10948e-14)
(3.53887e-15 -1.90093e-15 -9.49774e-15)
(-1.69609e-15 2.95169e-15 5.21989e-15)
(-1.43281e-15 -3.06814e-15 -1.19941e-14)
(-5.50588e-15 2.11856e-15 2.55182e-15)
(1.94932e-15 3.37617e-15 -7.0633e-15)
(4.97461e-16 6.11295e-15 1.25575e-14)
(1.67094e-16 3.25075e-15 6.98759e-16)
(3.66074e-15 -4.11137e-15 -2.6734e-15)
(-1.27587e-15 -5.5541e-15 -1.41764e-16)
(-3.43445e-15 -3.40256e-15 -9.46363e-15)
(-4.2534e-16 6.32947e-16 1.16462e-15)
(1.16973e-15 3.97001e-15 3.97001e-15)
(4.89566e-15 -7.71152e-16 4.05017e-17)
(-4.32303e-15 7.08474e-16 7.79676e-15)
(3.93007e-15 7.1596e-16 2.12643e-15)
(1.13454e-15 4.92739e-15 -4.13644e-15)
(-3.05687e-15 2.81505e-15 -7.08826e-16)
(8.39907e-16 -4.22164e-15 6.46075e-15)
(-2.92504e-15 3.79375e-15 3.40269e-15)
(4.25343e-16 3.6863e-15 -1.41781e-16)
(-1.276e-15 8.50667e-16 -4.21789e-15)
(-3.91811e-15 -2.08431e-15 -7.08867e-16)
(6.47194e-15 -3.79491e-16 -3.84299e-15)
(2.12669e-15 4.20937e-15 -1.0279e-15)
(8.04449e-15 2.62317e-15 2.01998e-15)
(-3.27492e-15 -2.92689e-15 2.97692e-15)
(-1.58975e-15 1.57082e-15 8.50034e-15)
(-1.36402e-15 1.36726e-15 -3.11872e-15)
(-9.7173e-16 -4.23526e-15 -8.38942e-15)
(1.58064e-15 -4.53425e-15 9.17954e-15)
(1.31099e-15 -7.0719e-15 -7.19988e-15)
(-1.79045e-15 -2.39369e-15 -8.19759e-15)
(-3.25539e-15 1.5596e-15 3.08881e-15)
(-1.98487e-15 -9.78763e-15 5.67106e-15)
(2.55192e-15 -6.02537e-16 7.79754e-15)
(4.39502e-15 -5.43131e-15 6.43557e-15)
(-5.3863e-15 1.22732e-14 5.81153e-15)
(-4.73549e-15 -8.45214e-15 2.83495e-16)
(2.91758e-15 5.47873e-15 -4.50045e-15)
(2.63549e-15 -9.95233e-15 5.088e-15)
(-1.41762e-15 -1.0052e-14 -4.67798e-15)
(4.10983e-15 7.83047e-15 6.78948e-15)
(-4.07907e-15 2.71548e-15 4.93156e-15)
(1.45856e-16 -1.35125e-15 -5.51409e-15)
(-3.69568e-15 1.24389e-15 -8.50711e-16)
(-2.55208e-15 -2.9673e-15 4.14713e-15)
(2.09631e-15 4.00527e-15 -9.57517e-15)
(3.72165e-15 -4.25332e-15 1.41777e-15)
(-1.59453e-15 -1.17646e-14 5.66943e-16)
(-6.29173e-15 6.11397e-15 2.22223e-15)
(2.28938e-15 6.68623e-15 9.46134e-15)
(-4.85021e-15 -2.49924e-15 -2.85521e-15)
(8.07753e-16 1.5695e-14 4.25259e-15)
(3.05521e-15 -1.54731e-14 7.87794e-15)
(2.87529e-15 -1.72485e-15 -1.17158e-14)
(-1.68802e-15 -7.87274e-15 -7.08847e-17)
(-3.66512e-15 -6.4124e-15 4.39512e-15)
(-6.87556e-15 -2.26025e-17 1.5596e-15)
(3.43829e-15 -2.8357e-16 -7.93998e-15)
(1.98491e-15 5.51927e-15 4.25338e-15)
(6.73187e-16 -1.01282e-14 7.69357e-16)
(4.41938e-15 6.36222e-15 -1.43251e-15)
(2.29446e-15 -7.25819e-15 -1.21897e-14)
(-2.26048e-15 -5.03509e-15 -7.64929e-15)
(-5.00999e-15 7.33788e-15 -6.52055e-15)
(-4.20259e-15 4.82472e-15 4.09073e-15)
(5.58926e-15 -5.63818e-15 1.03134e-14)
(1.58852e-15 2.16198e-15 -2.4101e-15)
(-1.41879e-15 6.20623e-15 -7.35221e-15)
(2.57373e-15 1.83092e-15 1.06335e-14)
(4.17758e-15 6.16893e-15 -3.11929e-15)
(-5.10935e-15 1.22138e-14 -9.87436e-16)
(-4.25142e-16 1.7158e-15 4.11983e-15)
(-6.5185e-16 3.25549e-15 -1.05129e-14)
(-3.23544e-15 -7.72051e-15 3.83184e-15)
(4.22013e-15 -2.53841e-15 -1.41739e-16)
(2.43928e-15 1.55995e-15 3.11847e-15)
(-2.37178e-15 1.82385e-15 1.00244e-15)
(-3.6537e-15 1.1746e-14 3.08332e-15)
(3.9428e-15 5.11562e-15 4.61259e-15)
(-7.20248e-16 8.04905e-15 4.42543e-15)
(2.57862e-15 4.62642e-15 8.65869e-16)
(-1.09027e-15 -3.41303e-17 -5.10419e-15)
(5.67662e-15 -5.20169e-15 1.69134e-15)
(-1.57393e-15 4.23466e-15 9.34742e-15)
(-1.57619e-15 -4.6324e-15 6.09366e-15)
(2.52708e-15 -1.96622e-15 -9.92065e-16)
(-2.93084e-17 -2.22493e-15 -1.04882e-14)
(9.37752e-17 -3.43213e-15 8.30209e-16)
(2.1312e-16 5.55901e-15 -4.39437e-15)
(-3.00741e-16 4.27602e-15 5.92879e-15)
(-3.26864e-15 -4.89664e-15 1.26583e-15)
(-1.81592e-15 1.08589e-15 -1.54539e-14)
(4.80238e-15 1.08713e-14 -2.26849e-15)
(2.46534e-15 3.12431e-15 3.1395e-16)
(-5.21065e-15 -7.71793e-17 4.67895e-15)
(-3.44624e-15 6.58045e-15 -9.49362e-15)
(-2.56709e-15 -8.09013e-15 5.34927e-15)
(1.08219e-15 1.02251e-14 1.05274e-15)
(-2.39668e-15 2.48055e-15 4.66187e-15)
(5.96112e-16 1.05592e-14 9.07145e-15)
(2.23592e-15 -8.09931e-15 -1.4995e-14)
(5.21529e-15 8.44e-15 -3.40242e-15)
(-5.18761e-15 3.50731e-16 3.26072e-15)
(-5.11519e-15 9.07367e-16 7.23581e-15)
(3.50573e-15 -2.49258e-15 -2.26853e-15)
(4.68106e-15 1.05216e-15 -5.21563e-15)
(-1.84322e-15 -3.26108e-15 5.40306e-15)
(-1.31366e-14 6.39293e-15 -3.68391e-15)
(7.6612e-17 -7.16302e-15 1.24996e-15)
(4.54651e-15 4.44309e-15 3.13278e-15)
(7.71303e-15 -4.2158e-15 -3.94294e-15)
(2.1793e-15 -2.75052e-15 -5.8163e-15)
(7.79937e-16 2.1588e-15 7.4773e-15)
(1.33842e-15 -1.84724e-14 6.88051e-15)
(-2.63821e-15 -4.04583e-15 -2.77964e-15)
(-4.90278e-15 -5.1087e-15 -1.26587e-15)
(1.5095e-15 -9.29764e-15 -1.68415e-14)
(4.16336e-15 -4.73523e-15 1.5753e-14)
(-7.08941e-16 -1.00315e-14 4.53722e-15)
(-7.30688e-15 -5.27949e-15 3.94187e-15)
(1.6668e-15 1.10151e-14 -1.69678e-14)
(1.84942e-15 -5.66649e-17 2.4242e-15)
(-5.73605e-15 5.05838e-15 -3.96819e-15)
(2.05088e-15 -1.57258e-16 -1.28677e-14)
(2.6452e-15 2.3649e-15 -8.45442e-16)
(-2.38857e-15 3.05929e-15 6.73353e-16)
(5.29691e-15 -8.16026e-15 -8.90109e-15)
(-2.86832e-15 1.32499e-15 2.28367e-15)
(3.07511e-15 8.1314e-15 -3.4736e-15)
(-5.89169e-15 -1.27597e-15 8.17288e-15)
(-2.97756e-15 4.07642e-15 8.02118e-15)
(3.44088e-15 1.48758e-15 -2.07971e-15)
(-3.25104e-15 7.90434e-15 3.96744e-15)
(-1.06052e-15 -1.70049e-15 -5.95172e-15)
(1.08798e-15 1.70066e-15 -2.12583e-15)
(-2.61273e-15 -1.00737e-15 -3.65993e-15)
(-2.96526e-15 4.25257e-16 1.56434e-15)
(2.17463e-15 3.54383e-15 -2.55169e-15)
(2.18939e-15 -3.35696e-15 3.77721e-15)
(2.36439e-16 -3.11921e-15 5.20037e-15)
(-2.98192e-15 4.82065e-15 3.11918e-15)
(-3.28213e-15 -8.91128e-16 2.53187e-16)
(1.16469e-15 1.41789e-15 -2.49143e-15)
(6.34545e-15 -5.80752e-15 9.88757e-15)
(-1.30235e-15 -1.72738e-15 -2.2671e-15)
(-3.10883e-16 2.45048e-15 -6.12882e-15)
(3.96694e-16 -1.05554e-14 -2.53073e-15)
(2.00171e-15 -7.33426e-15 3.12327e-15)
(-7.12224e-15 -2.3649e-15 -1.41751e-15)
(-1.54903e-15 -1.61657e-15 3.68066e-15)
(1.86319e-16 7.27908e-15 1.13415e-14)
(3.6956e-15 -1.19831e-15 7.7675e-15)
(-7.83049e-16 -4.7994e-15 -1.13424e-15)
(-4.15005e-15 3.68649e-15 -1.79763e-14)
(4.20302e-16 2.55219e-15 2.83071e-15)
(8.74929e-15 -1.89602e-15 -5.66756e-15)
(2.95907e-15 -3.11383e-15 -5.38444e-15)
(-6.36074e-15 5.88693e-15 -4.39297e-15)
(-1.94487e-15 -7.05205e-15 -7.75935e-15)
(6.61987e-15 -3.0157e-15 -2.80438e-15)
(-1.80445e-15 -5.98622e-15 3.22481e-15)
(5.26414e-15 4.64503e-15 -5.4477e-15)
(9.80038e-16 7.71645e-15 -4.22769e-15)
(-4.15163e-15 3.07332e-15 -4.20269e-16)
(1.16357e-15 -1.04146e-14 -9.71198e-15)
(1.98258e-15 -3.84251e-15 2.28826e-14)
(5.1145e-16 6.72987e-15 -1.92427e-16)
(-3.44624e-15 -1.62129e-15 1.32081e-15)
(3.84275e-15 -2.05148e-15 4.52436e-15)
(-5.00604e-15 -7.81547e-15 -7.26798e-15)
(-8.06169e-15 1.04926e-14 -7.72929e-15)
(1.61227e-15 -9.58306e-15 -1.94894e-15)
(4.43353e-15 6.00384e-15 -2.40973e-15)
(3.89724e-15 -7.96468e-15 4.25303e-15)
(-1.21029e-15 7.67879e-16 -1.44555e-14)
(-9.35462e-15 -5.30297e-15 -6.38007e-15)
(7.13451e-16 4.76101e-15 9.18554e-15)
(7.20072e-15 -5.02211e-15 -6.95249e-15)
(-1.94956e-15 -3.32691e-15 -2.55215e-15)
(-7.13582e-16 -1.55736e-15 9.9193e-15)
(4.03363e-15 7.97622e-15 -2.23704e-15)
(2.0331e-15 5.89482e-15 2.46533e-24)
(-1.25005e-15 6.4215e-15 -4.96063e-15)
(-1.97877e-15 9.91652e-15 1.9844e-15)
(1.1561e-15 -8.40437e-15 3.10846e-15)
(-3.09447e-15 1.25215e-15 -8.05019e-15)
(1.29067e-15 1.65111e-15 -4.53674e-15)
(-2.41787e-16 7.20308e-15 -8.64851e-15)
(-6.78684e-16 -1.43781e-15 -8.08149e-15)
(3.70351e-16 8.61338e-15 4.25352e-15)
(1.02289e-15 -4.02948e-15 2.70913e-15)
(1.67526e-15 -1.22991e-14 7.90561e-15)
(4.43228e-15 -2.48204e-16 9.92072e-16)
(-3.13063e-15 -8.93666e-15 4.67718e-15)
(1.95913e-16 6.75938e-15 1.05798e-15)
(-7.15476e-15 -1.43852e-15 1.17651e-14)
(-2.84846e-15 5.14741e-15 2.23777e-15)
(1.77615e-15 -9.84237e-15 1.37813e-14)
(4.0526e-15 -8.88298e-15 -1.24758e-14)
(3.34162e-16 -6.87397e-15 -3.69123e-15)
(3.39914e-15 2.16402e-15 1.27602e-15)
(-7.7507e-15 7.12843e-15 -6.3853e-15)
(-4.92717e-15 6.27024e-15 -1.2761e-15)
(2.97113e-15 4.46268e-15 3.22927e-15)
(3.76128e-15 -1.93362e-14 2.81441e-15)
(2.32853e-15 -2.94326e-15 -8.22095e-15)
(-1.95864e-15 -5.3989e-15 7.13798e-16)
(3.27715e-15 -5.22229e-15 -2.54646e-15)
(-6.55898e-15 1.50888e-15 7.70277e-22)
(1.30389e-17 -1.15646e-15 6.80473e-15)
(-9.03502e-16 4.3085e-15 4.91134e-16)
(2.50438e-15 -8.33286e-15 -1.10891e-15)
(1.05577e-14 5.82003e-15 7.2004e-15)
(-3.70916e-15 -4.93821e-15 2.83572e-16)
(4.11179e-15 7.13993e-16 9.16037e-15)
(-2.30321e-15 1.39959e-14 -1.94887e-15)
(5.04943e-15 1.04265e-15 4.20148e-16)
(1.15086e-15 1.14571e-14 7.08715e-16)
(-7.11207e-15 -2.28976e-15 -6.48496e-15)
(1.36058e-15 -1.10116e-14 -2.83506e-15)
(6.84273e-15 8.95103e-15 1.15739e-14)
(-2.34934e-15 4.34273e-15 -7.30088e-15)
(2.35031e-15 1.16597e-14 3.29107e-15)
(-7.89605e-15 1.2879e-15 3.02821e-23)
(4.41029e-16 -1.30059e-14 7.23086e-15)
(5.53469e-15 -1.55458e-15 -4.7093e-16)
(-2.23303e-15 -1.05879e-14 9.92456e-16)
(-4.96106e-15 -3.76906e-15 1.55919e-15)
(3.17712e-15 1.25376e-14 7.08737e-16)
(3.707e-15 -1.15732e-14 1.28078e-15)
(-1.19659e-14 -3.17043e-15 -2.25796e-15)
(5.36531e-15 1.07454e-14 -7.93839e-15)
(9.36287e-16 -6.41244e-15 9.07289e-15)
(7.55019e-16 -3.00257e-16 2.94172e-15)
(-6.07109e-15 -4.27929e-15 5.95461e-15)
(-1.93107e-15 4.15912e-15 -3.15472e-15)
(3.25087e-15 3.97497e-15 1.73177e-15)
(2.66343e-15 -6.32944e-15 7.49405e-15)
(3.72165e-15 5.67108e-16 -4.39509e-15)
(4.50573e-15 1.06204e-15 2.13136e-15)
(-5.98708e-15 1.21918e-16 -1.07432e-14)
(-6.44609e-15 -4.22379e-15 -7.91306e-15)
(4.49561e-15 6.3581e-15 -1.02827e-14)
(1.76495e-15 6.10377e-15 -3.13907e-15)
(-6.41993e-16 5.38484e-15 -3.54423e-15)
(1.57756e-15 8.06444e-15 7.08849e-16)
(3.77856e-15 2.6671e-15 -4.82032e-15)
(-1.08868e-15 2.785e-15 1.38237e-15)
(-3.69125e-15 1.01826e-14 6.385e-15)
(-1.15573e-15 2.6937e-15 6.65323e-15)
(-7.59509e-17 -1.79902e-15 5.43808e-15)
(-1.24543e-15 -1.17742e-14 7.08782e-16)
(3.42171e-15 -1.84278e-15 6.5513e-15)
(-3.26052e-15 -3.0131e-16 -1.68595e-15)
(5.10353e-15 4.49489e-15 4.39465e-15)
(-3.95419e-15 2.69354e-15 -4.53648e-15)
(2.39996e-15 5.35542e-15 -8.33417e-15)
(-2.38034e-15 -4.40154e-15 -3.68118e-15)
(5.67123e-16 -1.13425e-15 8.72965e-15)
(-1.41778e-15 1.70133e-15 -8.07628e-15)
(-2.095e-15 -8.42489e-16 3.03803e-17)
(-1.4177e-16 -7.21547e-15 1.84302e-15)
(-7.08897e-16 -4.20946e-15 -5.67118e-15)
(1.17254e-14 4.55344e-15 -7.61439e-15)
(2.54666e-15 1.15435e-15 8.6475e-15)
(-1.72646e-15 7.93363e-15 -5.10344e-15)
(1.27871e-16 4.83433e-16 -3.40243e-15)
(1.13413e-15 -6.34754e-15 -8.50633e-16)
(-1.6654e-15 -1.15007e-14 -6.78006e-15)
(2.79954e-15 -4.35458e-16 1.41777e-16)
(2.56578e-15 -2.26834e-15 3.10378e-15)
(-9.77158e-16 4.83516e-15 -4.67314e-15)
(-5.24616e-15 8.20372e-16 -3.52418e-15)
(-3.13942e-16 9.62079e-15 1.16462e-15)
(1.42799e-15 2.83572e-15 1.13429e-15)
(1.27586e-15 7.62479e-15 2.69348e-15)
(2.12644e-15 -6.85523e-15 -3.37192e-15)
(1.40375e-15 -1.70624e-15 -1.98978e-15)
(-2.97081e-15 -1.4177e-16 1.13416e-15)
(-4.11144e-15 -4.63803e-15 3.91397e-15)
(1.39745e-15 -1.35391e-14 -1.02784e-15)
(2.69357e-15 3.8277e-15 -9.99962e-15)
(-2.8355e-16 -4.11147e-15 1.12914e-14)
(-1.25894e-15 -1.26178e-14 -1.70634e-15)
(8.09877e-15 -6.38027e-15 -8.50703e-16)
(1.70136e-15 1.03145e-14 2.93687e-16)
(-5.21064e-15 2.12679e-15 -5.67144e-16)
(-4.05027e-15 -4.80464e-15 -3.11871e-15)
(-4.82497e-15 -4.85028e-15 -9.92333e-16)
(5.69253e-15 -7.16924e-15 5.64021e-15)
(5.67062e-15 3.40237e-15 3.92893e-15)
(-5.1035e-15 -6.73378e-16 -3.96939e-15)
(-4.42315e-15 7.42764e-15 1.13415e-15)
(1.68104e-15 9.19e-15 -7.4077e-15)
(5.8688e-16 -7.08376e-15 5.10395e-15)
(2.16165e-15 -4.96225e-15 -3.82802e-15)
(-5.67118e-16 -5.95473e-15 -1.41779e-15)
(7.21608e-17 2.95197e-15 6.93182e-15)
(4.10673e-15 -8.04636e-15 3.01295e-15)
(2.69844e-15 -2.1457e-15 3.96918e-15)
(-6.343e-15 1.6007e-15 7.51324e-15)
(-1.9683e-15 6.82145e-15 -2.3897e-15)
(3.68634e-15 -5.95395e-15 -5.67052e-16)
(4.1127e-16 -8.4028e-15 2.64291e-15)
(1.26007e-15 1.42793e-14 -4.92658e-15)
(-1.88731e-15 4.67993e-15 -2.59252e-15)
(-6.54217e-15 1.1626e-14 -1.10589e-14)
(-1.98489e-15 1.31145e-15 2.83556e-16)
(1.30211e-15 2.26838e-15 -1.58432e-14)
(8.7456e-15 1.10106e-15 7.99484e-15)
(2.28872e-15 -3.71925e-15 1.13424e-15)
(5.92298e-15 1.16915e-16 1.8427e-15)
(7.92683e-15 1.22213e-15 -3.93348e-15)
(-3.86169e-15 5.12049e-15 -1.41757e-15)
(-2.06207e-15 -2.89497e-15 1.72641e-15)
(9.16417e-15 -2.06348e-15 -6.3793e-15)
(-1.22879e-15 -5.46136e-15 5.2457e-15)
(4.79701e-16 -7.70226e-15 -9.51902e-16)
(-4.64315e-15 -6.03419e-15 -1.11699e-14)
(-6.63175e-15 -1.41161e-15 5.95483e-15)
(8.89661e-15 4.11158e-15 2.97735e-15)
(-2.41019e-15 7.55462e-15 2.12664e-15)
(5.67091e-16 -4.82027e-15 1.41773e-16)
(-8.45392e-16 1.71065e-15 -5.2799e-15)
(-1.02069e-15 7.38759e-17 -3.1184e-15)
(-2.21745e-15 -7.07722e-15 -3.11351e-15)
(-1.25607e-15 -1.35136e-15 4.11096e-15)
(-7.06202e-17 -6.53708e-15 -3.27566e-15)
(-2.31171e-16 -2.8984e-15 -2.8709e-15)
(-5.67584e-15 2.00361e-15 7.36182e-15)
(5.02782e-15 3.57631e-15 -6.37961e-15)
(-1.01553e-15 8.47784e-15 -5.92416e-16)
(1.61148e-15 -2.30023e-15 -1.41275e-15)
(1.27607e-15 -6.38037e-15 4.25358e-15)
(-5.94479e-15 -2.12676e-15 5.67135e-15)
(-3.73067e-15 -3.43954e-17 -8.36238e-15)
(-3.568e-15 4.67097e-15 3.36128e-15)
(4.40682e-17 -7.3355e-15 -3.69037e-15)
(-4.92357e-15 -6.6177e-16 -8.49978e-15)
(2.78046e-15 1.29107e-14 8.61682e-15)
(8.3222e-16 -7.53067e-16 -9.05292e-15)
(1.24175e-15 -2.51563e-15 -2.24302e-15)
(1.91515e-15 -4.49132e-16 -1.30128e-15)
(-1.50651e-15 4.07951e-15 2.8356e-15)
(-7.16741e-15 -2.73083e-15 1.06994e-14)
(1.29203e-15 -1.14439e-14 2.48122e-16)
(7.76287e-15 8.64398e-15 -1.27102e-15)
(8.18956e-15 2.48929e-15 -8.71596e-15)
(-5.79621e-15 1.14862e-15 2.42462e-15)
(-5.65088e-15 5.1008e-15 2.16148e-15)
(6.81771e-15 6.0312e-16 2.25268e-15)
(2.66753e-15 6.26085e-15 -7.65481e-15)
(-6.69181e-15 -3.90632e-15 -6.79974e-15)
(4.62696e-15 5.5862e-15 -5.80735e-15)
(2.10956e-15 -7.47845e-15 -1.26174e-14)
(-5.80988e-15 -3.93186e-15 -1.27296e-14)
(3.19014e-15 9.07601e-15 1.52407e-15)
(1.56256e-15 4.74138e-15 7.19534e-15)
(3.97003e-15 -9.01836e-15 -9.35793e-15)
(-3.82629e-15 -6.20318e-16 3.99331e-15)
(-2.10399e-15 -4.28088e-15 -9.86975e-16)
(2.51043e-15 9.66446e-15 -4.25179e-15)
(6.7544e-16 1.16955e-14 -4.95574e-15)
(-5.93714e-15 -2.29013e-15 5.83201e-15)
(4.41119e-15 4.60177e-15 5.72111e-16)
(-3.17891e-15 3.38254e-15 -1.06327e-16)
(-3.89095e-15 8.58534e-15 2.83551e-16)
(8.28277e-15 -3.20474e-15 3.70657e-15)
(-6.81044e-16 2.3797e-15 6.25368e-15)
(-9.08463e-15 4.25353e-16 -1.8432e-15)
(-8.10185e-16 -4.48622e-15 4.67375e-15)
(-4.07383e-15 -4.53923e-15 3.54752e-15)
(-4.37694e-16 3.85295e-15 2.3786e-15)
(6.54851e-15 -6.72727e-15 -5.5826e-15)
(-1.04062e-15 -7.46606e-15 1.14447e-14)
(1.76063e-15 -7.73266e-15 -9.77518e-15)
(-2.94707e-15 6.48769e-16 2.10616e-15)
(-4.49311e-15 8.66443e-15 6.94669e-15)
(1.05212e-15 -5.57008e-17 -2.8355e-15)
(-4.41505e-15 2.85041e-15 -6.80556e-15)
(1.0746e-15 -4.7164e-15 3.40288e-15)
(2.43663e-15 -4.27492e-15 2.2686e-15)
(-8.79081e-15 7.65652e-15 -3.4029e-15)
(2.39346e-15 7.63599e-16 -8.77434e-15)
(-2.21348e-16 -6.134e-15 -1.27523e-15)
(-1.8988e-15 3.65546e-15 1.17466e-14)
(6.29476e-16 -1.53626e-15 -7.29879e-15)
(5.03941e-15 5.04247e-15 -7.37047e-15)
(5.68418e-15 -5.19833e-15 4.8198e-15)
(-8.19915e-15 -4.11201e-15 1.38222e-15)
(-3.17384e-15 -4.83294e-15 -4.10137e-15)
(8.75614e-16 8.02742e-15 6.94729e-15)
(-1.01241e-16 6.44793e-15 -8.9022e-15)
(2.50682e-15 4.39619e-16 -1.19154e-14)
(2.5877e-15 4.13672e-15 -9.92542e-16)
(4.0732e-15 -6.40162e-15 -2.12515e-15)
(-7.28533e-16 -4.1577e-15 -8.60749e-15)
(5.25921e-15 3.64324e-15 6.8827e-15)
(1.96341e-15 -1.12961e-15 8.37159e-15)
(-5.4109e-15 -1.55936e-15 -5.66963e-16)
(-1.99484e-15 3.10073e-15 4.25272e-16)
(-3.35731e-18 -1.09252e-15 -4.39482e-15)
(4.09887e-15 6.07203e-15 -3.82803e-15)
(9.0415e-16 -7.08494e-16 -2.22292e-15)
(-2.44749e-15 -9.29384e-15 -1.49993e-14)
(-6.15471e-15 2.7536e-15 3.23078e-15)
(4.10187e-16 -5.81903e-15 2.96246e-15)
(1.41669e-15 7.52506e-15 -2.12504e-15)
(5.13131e-15 4.59098e-15 8.7487e-15)
(4.36663e-16 -1.4708e-16 4.20532e-15)
(-1.88777e-15 -5.38393e-15 -3.96298e-15)
(1.7147e-16 -1.47317e-14 -9.97222e-16)
(1.79413e-15 4.92953e-15 -8.789e-15)
(1.19198e-15 -1.43365e-14 -1.23546e-14)
(-1.28148e-15 -1.18977e-14 -3.96981e-15)
(-2.50172e-15 2.09689e-15 2.68882e-15)
(4.84955e-15 -5.26098e-16 7.71235e-15)
(2.79608e-15 9.15869e-16 -1.5749e-15)
(-8.64948e-15 1.25083e-15 -1.32173e-15)
(-2.37796e-15 -5.67723e-15 -1.53809e-15)
(-3.81732e-15 -2.05317e-15 1.07369e-14)
(3.78725e-15 -3.6801e-15 2.67698e-15)
(-5.7927e-15 4.38529e-15 -5.51676e-15)
(3.96716e-15 8.41969e-18 1.85772e-15)
(-4.69285e-15 2.63732e-15 5.66516e-15)
(1.98882e-15 6.17004e-15 -2.26837e-15)
(2.79838e-15 -7.69251e-16 1.18789e-14)
(9.43937e-16 -4.06109e-15 -1.87357e-15)
(-1.4072e-15 6.77034e-15 9.29744e-15)
(8.61836e-15 4.36528e-15 -9.23192e-15)
(9.52052e-16 2.65866e-15 1.09283e-14)