/*--------------------------------*- C++ -*----------------------------------*\
| =========                 |                                                 |
| \\      /  F ield         | OpenFOAM: The Open Source CFD Toolbox           |
|  \\    /   O peration     | Version:  4.1                                   |
|   \\  /    A nd           | Web:      www.OpenFOAM.org                      |
|    \\/     M anipulation  |                                                 |
\*---------------------------------------------------------------------------*/
FoamFile
{
    version     2.0;
    format      ascii;
    class       volVectorField;
    location    "4e-05";
    object      U;
}
// * * * * * * * * * * * * * * * * * * * * * * * * * * * * * * * * * * * * * //

dimensions      [0 1 -1 0 0 0 0];

internalField   nonuniform List<vector> 
12360
(
(-8.50577e-16 -3.6352e-15 -3.54407e-15)
(-4.25288e-16 -4.5364e-15 5.10345e-15)
(3.4732e-15 -4.96172e-15 -4.64275e-15)
(-2.76439e-15 -3.47321e-15 -7.30082e-15)
(-8.50592e-16 1.27589e-15 -2.78468e-16)
(8.31821e-16 -2.15182e-15 2.49104e-15)
(-2.50604e-16 -2.23299e-15 -1.41777e-16)
(-1.5495e-15 -4.50672e-15 -5.641e-15)
(-1.55452e-15 3.53757e-23 2.8356e-16)
(1.41786e-16 7.52931e-23 5.67144e-16)
(-2.8356e-16 -4.2534e-16 -4.2534e-16)
(-9.92502e-16 2.23313e-15 2.23313e-15)
(7.03749e-16 2.78968e-15 -1.01765e-15)
(-1.27586e-15 1.84291e-15 2.53149e-17)
(4.15985e-16 2.69354e-15 3.52894e-15)
(6.99527e-16 -9.92391e-16 -2.8354e-16)
(-7.08869e-16 -1.27596e-15 -4.64309e-15)
(-1.13416e-15 1.13416e-15 5.59993e-15)
(2.57575e-15 -5.62415e-15 -3.34164e-15)
(-4.34554e-16 -1.57612e-15 9.92425e-16)
(-5.4392e-16 1.41773e-15 4.2532e-16)
(9.09414e-16 5.06877e-15 2.55211e-15)
(-2.65838e-15 8.4423e-24 -1.4178e-15)
(-6.73484e-16 1.55965e-15 -5.67144e-16)
(1.67074e-16 -1.64703e-15 -2.69343e-15)
(-4.10097e-16 2.94931e-15 -2.87068e-15)
(1.46273e-17 -2.61555e-15 2.12647e-15)
(4.25296e-16 -3.37199e-15 3.94918e-16)
(1.41764e-16 1.15436e-15 -2.97704e-15)
(3.35367e-16 4.21761e-15 8.65799e-16)
(2.83548e-16 1.55952e-15 -3.26081e-15)
(7.32229e-16 -9.80684e-16 4.67862e-15)
(7.32283e-16 -1.40677e-15 -1.84312e-15)
(-1.70135e-15 -3.50904e-15 -1.98491e-15)
(-4.48895e-15 1.55953e-15 -4.25327e-16)
(-1.41786e-16 -3.76746e-15 6.38037e-15)
(-3.07809e-15 -2.70345e-15 5.14365e-15)
(-8.21783e-16 -1.34667e-15 2.79965e-15)
(4.94938e-15 1.88098e-15 -3.68569e-15)
(-2.22403e-17 7.40413e-15 -3.96929e-15)
(1.29001e-15 6.86387e-16 2.14678e-15)
(-4.50621e-16 2.12652e-15 1.27591e-15)
(7.04548e-16 -2.52144e-15 -6.24283e-15)
(-8.59943e-16 9.8734e-16 3.96962e-15)
(-5.4319e-16 -1.15628e-15 -2.77483e-15)
(-2.38629e-15 -4.24168e-15 -4.53699e-15)
(-1.4988e-15 2.26846e-15 -3.40269e-15)
(-4.9065e-15 6.78505e-16 4.47611e-15)
(2.83497e-16 6.70174e-16 -2.97672e-15)
(-9.60277e-16 1.00961e-15 -2.55148e-15)
(4.23836e-16 -5.8795e-16 -1.27577e-15)
(-2.60937e-15 -2.97692e-15 -1.13406e-15)
(2.64903e-16 2.1506e-15 -5.92358e-15)
(1.46278e-17 -2.82363e-15 4.6784e-15)
(1.13416e-15 1.45821e-15 3.82274e-15)
(6.19132e-16 -1.98485e-15 -2.88613e-16)
(-2.83551e-16 1.98486e-15 6.09635e-15)
(3.11891e-16 8.62559e-16 -6.09132e-15)
(-5.4883e-16 -2.9938e-15 -8.50703e-16)
(-1.38241e-15 2.80534e-15 1.41786e-16)
(8.85876e-16 -4.79688e-15 1.13392e-15)
(-4.25223e-16 -1.84118e-15 5.81138e-15)
(-9.85024e-16 -1.83793e-15 -3.26017e-15)
(4.31639e-15 2.54178e-15 3.68558e-15)
(-3.06718e-15 3.03293e-15 1.84282e-15)
(2.53348e-15 -1.93801e-15 1.52397e-15)
(1.43151e-15 -2.85982e-15 7.91885e-15)
(5.57789e-16 1.28104e-15 2.41017e-15)
(2.61499e-17 2.83547e-16 -2.1266e-15)
(-1.54436e-15 -1.46574e-23 -5.21031e-15)
(1.14296e-15 2.10019e-15 8.7093e-16)
(-3.68638e-15 -5.59487e-16 3.40281e-15)
(-1.59447e-15 5.65564e-16 -9.61742e-16)
(3.24528e-15 5.54609e-15 3.82676e-15)
(-2.10743e-15 4.19714e-15 2.01979e-15)
(-5.38321e-16 -3.85909e-16 8.49467e-15)
(-1.35687e-15 -3.51988e-15 8.981e-15)
(-3.45847e-15 9.24036e-16 7.03766e-16)
(1.59192e-15 -3.90693e-15 3.06825e-15)
(4.63363e-15 1.03401e-15 -6.37984e-15)
(7.55539e-16 9.92429e-16 -8.50654e-16)
(-3.40725e-15 -2.97733e-15 -6.23821e-15)
(-6.45838e-16 1.70135e-15 -1.70135e-15)
(-1.12412e-15 -1.86079e-15 7.59542e-15)
(-5.90175e-15 -3.7831e-16 1.56402e-15)
(-4.57963e-19 -3.49241e-15 7.71384e-15)
(2.03511e-15 -2.14886e-15 -2.52585e-15)
(-3.51611e-15 -3.6495e-15 -3.40176e-15)
(-1.53179e-15 1.85702e-15 6.20646e-15)
(4.03106e-16 6.28742e-15 -9.41688e-16)
(-2.14159e-15 3.41503e-15 -4.25294e-16)
(2.11288e-15 2.69537e-16 3.26072e-15)
(1.24743e-15 -2.64655e-15 -8.50651e-16)
(1.83853e-15 5.67122e-16 -7.53157e-23)
(2.24787e-15 -8.50684e-16 -5.1041e-15)
(-4.37996e-15 3.666e-15 -8.55737e-16)
(4.50445e-15 -1.96751e-15 2.78871e-15)
(2.57393e-15 -5.18824e-16 -1.98403e-15)
(9.74848e-16 -1.08406e-15 -5.36527e-16)
(-3.72562e-16 -1.25439e-15 -1.9843e-15)
(-8.93303e-16 -3.21087e-15 5.10282e-15)
(3.82863e-16 2.13438e-15 -2.12634e-15)
(4.8512e-16 -5.95047e-16 -4.25295e-16)
(-4.47419e-16 -1.17669e-15 -2.13158e-15)
(1.15441e-15 -3.00383e-15 3.54433e-16)
(4.05529e-15 1.39641e-15 1.70135e-15)
(-1.99039e-15 -4.67878e-15 1.27603e-15)
(2.97743e-15 -3.96485e-15 3.94966e-16)
(-1.13363e-15 8.9847e-15 -2.69238e-15)
(-2.57391e-15 -4.51744e-16 2.54572e-15)
(-3.77095e-15 -3.73578e-15 -2.69263e-15)
(-3.54756e-16 3.60042e-15 1.41729e-16)
(3.88001e-15 2.92798e-15 1.41741e-15)
(4.13648e-16 -7.39385e-15 -1.27071e-15)
(-2.86634e-15 4.10983e-15 2.67833e-15)
(-2.61051e-15 3.98855e-15 -4.11124e-15)
(2.05361e-15 1.11395e-15 7.88878e-15)
(6.70051e-16 -2.85723e-16 5.95473e-15)
(-2.43874e-15 -9.92472e-16 2.97742e-15)
(-2.69391e-15 8.30452e-16 7.16012e-15)
(-1.24491e-15 -7.55779e-15 -3.20786e-23)
(1.20045e-16 2.31155e-15 -4.60541e-16)
(1.2305e-16 2.39206e-15 -8.50286e-16)
(1.1163e-15 -2.34843e-16 -4.2518e-16)
(-4.73391e-15 2.67211e-15 2.98159e-15)
(3.18178e-16 2.41196e-15 7.08747e-16)
(3.0377e-15 -4.75694e-15 2.23783e-15)
(2.41503e-15 2.13825e-15 2.75437e-15)
(1.69907e-15 2.42034e-15 -3.68621e-15)
(-2.99027e-15 3.29637e-15 2.65836e-15)
(-1.35328e-15 -2.23309e-15 -2.83567e-16)
(2.84583e-15 3.03826e-17 1.98499e-15)
(1.94826e-15 -4.17322e-17 4.47341e-15)
(-1.53909e-15 8.42273e-15 1.41699e-16)
(-2.24052e-15 -2.2126e-15 1.03292e-22)
(1.04104e-15 -5.41983e-16 2.83448e-15)
(1.11343e-15 -2.13332e-15 1.13389e-15)
(-2.64484e-15 3.61682e-16 5.2447e-15)
(-9.96228e-16 4.3925e-15 -1.05817e-15)
(5.53875e-15 -2.42455e-15 -4.25309e-16)
(-1.6704e-16 -1.10967e-15 -3.82289e-15)
(-4.8707e-15 -5.6712e-16 -2.97738e-15)
(-2.641e-16 2.2635e-15 2.83571e-16)
(1.67104e-15 5.30175e-15 -4.39027e-15)
(6.88209e-16 6.9833e-16 1.84703e-15)
(5.6732e-16 1.26409e-22 -2.40883e-15)
(-3.51273e-15 3.04678e-15 1.27537e-15)
(2.01517e-15 1.67534e-15 4.78812e-15)
(1.57352e-15 2.20291e-23 -1.66536e-15)
(-1.36357e-15 -1.55922e-15 -4.21697e-15)
(-2.8094e-15 1.12905e-15 -1.14931e-15)
(1.81567e-15 -1.41768e-16 2.72903e-15)
(-1.22859e-16 -5.64558e-15 -5.23044e-15)
(-1.18119e-15 1.13425e-15 4.53702e-15)
(4.56324e-15 1.52926e-15 1.99006e-15)
(8.20329e-16 -2.73443e-16 -5.64609e-15)
(-1.31065e-15 4.17068e-17 -4.13943e-15)
(2.21495e-15 -4.37421e-15 -4.25099e-16)
(1.92171e-15 2.92154e-15 -1.84225e-15)
(-1.19936e-15 1.92899e-15 -7.8758e-15)
(-3.11839e-15 1.14123e-15 4.23692e-15)
(9.03511e-16 -1.32363e-15 4.53596e-15)
(8.2146e-17 -1.46102e-15 2.24291e-15)
(-2.22776e-15 3.41692e-15 -6.66317e-15)
(2.01677e-15 1.47623e-16 3.65073e-15)
(1.45685e-15 5.6712e-16 -1.84314e-15)
(-1.62421e-15 -1.70143e-15 -1.27607e-15)
(1.02288e-15 -4.05606e-15 1.36721e-16)
(2.55055e-15 -5.84923e-16 3.11733e-15)
(-1.09575e-15 -3.70314e-15 2.69239e-15)
(1.23095e-15 -3.31308e-15 -1.41714e-16)
(-5.7546e-16 -1.26847e-15 -6.74214e-15)
(-3.8043e-15 -8.24499e-16 -3.68523e-15)
(2.89544e-15 -1.01984e-15 -3.00711e-15)
(3.89545e-15 2.48373e-15 -9.11334e-17)
(-2.65589e-15 -2.83191e-15 -6.18215e-15)
(4.9834e-16 5.46349e-15 -3.54443e-15)
(-5.46889e-15 -5.67624e-15 2.65836e-15)
(2.84555e-17 1.72166e-16 2.2736e-15)
(1.16973e-15 8.70965e-16 2.14703e-15)
(6.4273e-16 -2.13768e-15 5.66311e-15)
(5.03661e-15 -2.4888e-15 4.25048e-23)
(-3.05673e-17 5.51267e-15 1.41211e-15)
(-7.9288e-16 -4.45071e-15 2.12594e-15)
(9.73208e-16 -1.09041e-15 -5.38616e-15)
(-2.59447e-15 6.96345e-15 4.67782e-15)
(-1.08751e-15 -8.30206e-15 4.07065e-15)
(3.80009e-15 -4.00874e-15 4.96184e-15)
(-3.80799e-15 1.12408e-15 -6.78496e-16)
(3.82387e-17 8.27582e-16 -3.23054e-15)
(5.2463e-15 2.93691e-15 -7.90939e-15)
(-3.52436e-15 2.77493e-15 -1.41785e-15)
(2.26741e-15 1.02635e-15 1.07542e-22)
(1.00129e-15 6.24848e-15 -2.5509e-15)
(1.48777e-15 -2.39266e-15 -9.92068e-16)
(-1.1242e-15 -2.43084e-15 1.84257e-15)
(1.7455e-15 1.06438e-15 5.6698e-16)
(-2.55796e-15 -1.80013e-15 -4.10079e-16)
(3.45072e-15 3.70881e-15 -5.6706e-15)
(2.48301e-15 5.35387e-15 -3.22016e-15)
(-2.9997e-15 7.30236e-16 -5.52916e-15)
(3.53426e-16 7.25395e-16 2.25327e-15)
(-8.503e-16 -1.10893e-15 4.08127e-15)
(1.82798e-15 -1.26592e-15 2.54702e-15)
(4.46428e-15 -2.55753e-15 1.07811e-15)
(-1.18175e-15 -2.11579e-15 -2.30808e-15)
(-2.37239e-15 -3.88982e-15 5.10231e-15)
(2.6632e-16 5.63378e-15 9.97243e-15)
(1.93926e-15 -5.38051e-15 4.20176e-16)
(5.63694e-16 -4.22213e-15 -4.74894e-15)
(-1.43608e-15 1.7444e-15 -1.41765e-15)
(2.82044e-16 -3.90486e-15 1.55948e-15)
(1.18856e-15 5.28969e-15 6.07608e-16)
(4.58641e-18 -1.98493e-15 -5.52944e-15)
(-3.86073e-15 4.10151e-16 -2.78498e-16)
(2.26846e-15 -1.96465e-15 -8.50673e-16)
(-8.50383e-16 4.19231e-15 -4.48982e-15)
(3.09871e-16 -7.51027e-15 4.30258e-16)
(1.56187e-16 2.19605e-15 -2.9207e-23)
(2.19268e-15 1.80338e-15 8.40355e-16)
(-9.35116e-16 3.09413e-15 4.55631e-16)
(-3.66089e-15 -1.76447e-15 6.37946e-15)
(3.58965e-15 9.80586e-16 -2.55181e-15)
(3.93281e-15 -2.98841e-15 -4.36462e-15)
(1.64471e-15 -1.67093e-15 -9.3977e-15)
(-6.17745e-15 -2.09628e-15 8.05094e-16)
(-2.83559e-16 7.08897e-16 -1.41779e-16)
(-1.41781e-16 1.5825e-15 7.0688e-15)
(3.96872e-15 8.28095e-16 -1.4174e-16)
(1.09846e-15 3.68363e-15 3.26004e-15)
(9.75449e-16 2.23213e-16 -3.54044e-23)
(-6.33612e-16 -1.98967e-15 -3.11857e-15)
(-1.0026e-15 -6.23116e-16 -9.92286e-16)
(1.98257e-15 1.22936e-15 -3.00743e-15)
(1.72961e-15 3.24953e-15 5.31636e-16)
(-1.89512e-15 2.0774e-22 3.21019e-15)
(-1.95445e-15 -1.24052e-15 2.98737e-16)
(1.67095e-15 -5.09371e-23 -2.44059e-15)
(1.44179e-15 -1.25446e-15 -1.55957e-15)
(-3.68638e-15 -1.25318e-15 8.51496e-23)
(2.55147e-15 6.05155e-16 2.26797e-15)
(-5.13204e-16 4.58945e-15 -2.26798e-15)
(1.14476e-15 2.51661e-15 -2.6781e-15)
(6.09575e-16 -2.83516e-16 7.65493e-15)
(-1.95137e-15 -2.45431e-15 1.41761e-16)
(1.01631e-15 3.95772e-15 3.2607e-15)
(1.5688e-15 -3.96957e-15 3.11895e-15)
(1.09287e-15 1.98485e-15 -2.73423e-16)
(3.03805e-17 -2.58234e-15 -2.41525e-15)
(-2.93378e-15 4.21116e-15 4.11658e-15)
(-1.18458e-16 2.43169e-15 7.31902e-23)
(-1.24063e-15 -2.83572e-16 2.14362e-24)
(2.02506e-15 3.58436e-15 5.14365e-15)
(1.83777e-15 -2.97684e-15 5.92837e-15)
(-1.11154e-15 -8.78397e-16 4.55648e-17)
(1.57455e-15 -4.4424e-15 -9.92323e-16)
(4.4865e-16 -2.24587e-15 -3.88563e-23)
(1.04663e-15 2.06577e-15 7.08841e-16)
(-2.51637e-15 2.51637e-15 -1.13414e-15)
(0 4.11702e-23 2.83544e-15)
(-9.68443e-16 -1.34499e-15 1.38235e-15)
(-2.66987e-15 2.39849e-15 -5.24589e-15)
(2.1143e-15 -1.84312e-15 2.88621e-15)
(-5.67109e-16 3.1191e-15 -1.41777e-16)
(-1.13408e-15 2.88738e-15 -2.83519e-15)
(8.50541e-16 -4.2253e-15 -4.93129e-15)
(1.59274e-15 -1.89316e-16 -1.27588e-15)
(-5.57734e-16 2.55178e-15 3.40237e-15)
(2.37961e-15 1.98469e-15 -1.5594e-15)
(1.39237e-15 -4.25305e-16 6.22768e-16)
(-3.48866e-15 2.83548e-16 4.28867e-15)
(-1.23239e-15 -1.00419e-15 -4.53684e-15)
(-1.97248e-16 1.2802e-15 2.25833e-15)
(-5.85714e-17 1.41779e-16 -2.55203e-15)
(1.98486e-15 -8.50654e-16 4.68574e-23)
(8.50716e-16 4.25358e-16 -2.55215e-15)
(2.23782e-15 -2.69348e-15 -9.61959e-16)
(1.41762e-16 -1.70115e-15 3.0884e-16)
(-7.86955e-32 -2.69354e-15 -2.8353e-16)
(-1.4177e-16 -4.2531e-16 2.26832e-15)
(0 -1.64052e-15 -1.84306e-15)
(-1.32434e-16 -4.4759e-15 -1.27593e-15)
(-1.11903e-15 3.24945e-15 2.1265e-15)
(4.16071e-16 3.20127e-16 1.41775e-16)
(-1.0076e-15 4.1013e-16 4.68865e-15)
(1.70141e-15 9.92487e-16 3.12431e-15)
(-4.2534e-16 4.2534e-16 -1.4178e-15)
(-6.73484e-16 -3.26108e-15 2.83572e-16)
(-1.88866e-31 3.11878e-15 1.70115e-15)
(-2.83525e-16 2.40996e-15 5.6705e-16)
(1.367e-16 1.98469e-15 -1.367e-16)
(-6.98692e-16 4.5415e-15 1.41764e-16)
(1.41765e-16 -2.68848e-15 -5.56935e-16)
(-1.9891e-15 -1.11388e-16 -3.84796e-16)
(2.14052e-15 -2.83554e-15 -2.23299e-15)
(-4.25354e-16 2.97748e-15 -3.96997e-15)
(-1.13424e-15 1.4178e-16 -5.24586e-15)
(0 1.41786e-15 3.40287e-15)
(-5.72184e-16 4.2534e-16 2.67863e-15)
(1.36722e-16 -8.5578e-16 3.54465e-15)
(-7.08812e-16 2.83525e-15 2.55172e-15)
(-1.80747e-15 4.58703e-15 -4.2225e-15)
(2.1121e-15 2.70366e-15 2.40494e-15)
(1.3832e-15 -3.68602e-15 9.92391e-16)
(0 -2.38484e-15 3.39751e-15)
(-5.72145e-16 5.67082e-16 7.08852e-16)
(4.49235e-16 1.62019e-15 -2.72901e-15)
(2.74295e-16 2.41017e-15 -5.65075e-15)
(-3.06043e-15 4.12156e-15 -5.51742e-23)
(1.33464e-15 3.68638e-15 -2.83568e-16)
(0 -1.13424e-15 -2.09632e-15)
(-6.73484e-16 -5.67144e-16 1.31152e-15)
(8.45481e-16 -1.31452e-15 -2.69339e-15)
(-4.20224e-16 -1.67077e-16 2.95169e-15)
(2.68336e-16 -7.99944e-16 -8.02476e-15)
(-3.37025e-15 2.13815e-15 3.11889e-15)
(2.23288e-15 2.06343e-15 -3.09367e-15)
(-1.51153e-15 2.84656e-15 7.16995e-15)
(-2.58237e-16 2.82542e-15 -1.01269e-17)
(3.09365e-15 -1.13417e-15 1.01265e-15)
(-1.41764e-16 -4.13647e-15 6.38229e-24)
(-1.53342e-15 -1.41717e-16 -3.79254e-15)
(-1.4178e-15 -5.01294e-16 1.72162e-16)
(-1.0634e-16 4.1118e-15 4.1118e-15)
(2.34405e-15 -1.57727e-15 3.24015e-16)
(-2.91754e-15 1.17281e-15 3.26046e-15)
(3.36765e-15 -3.72971e-17 -1.41762e-16)
(-2.95056e-16 3.21237e-15 -1.44294e-15)
(-2.20166e-15 9.72104e-16 -7.08826e-16)
(1.45262e-15 -3.23453e-15 1.07342e-15)
(-1.76109e-15 3.22124e-15 3.26091e-15)
(-8.50685e-16 1.55959e-15 1.13425e-15)
(0 -5.58925e-23 -9.57001e-16)
(-2.45849e-15 -1.42498e-15 -1.41773e-16)
(3.92475e-15 1.5227e-15 -1.85821e-15)
(1.70135e-15 2.19193e-15 -6.02562e-16)
(4.50066e-15 -1.88357e-16 -5.31574e-16)
(-2.92928e-15 3.64258e-16 4.25274e-16)
(-4.55677e-16 1.20938e-15 3.53885e-15)
(2.2968e-16 4.47514e-16 -1.84288e-15)
(-5.58396e-16 -2.43703e-15 -4.70355e-15)
(2.97624e-16 -2.13002e-15 6.34416e-15)
(-2.60194e-16 -5.65968e-15 -2.66325e-15)
(-3.8021e-16 -8.39583e-16 -4.22791e-15)
(-5.73529e-16 2.69385e-15 3.08881e-15)
(-7.08882e-16 -5.8179e-15 5.3875e-15)
(4.2532e-16 5.3165e-16 5.52917e-15)
(1.1342e-15 -4.04617e-15 6.15202e-15)
(-2.26792e-15 7.68638e-15 3.40187e-15)
(-1.36154e-15 -4.64247e-15 -3.584e-24)
(2.03955e-15 5.04968e-15 -2.79949e-15)
(3.51187e-16 -6.16236e-15 4.52098e-15)
(-4.25301e-16 -5.70242e-15 -1.41757e-16)
(2.5356e-15 4.55874e-15 3.38714e-15)
(-1.81819e-15 2.14282e-15 3.7974e-15)
(1.91736e-16 6.11454e-16 -3.24567e-15)
(-2.83181e-15 -5.88568e-16 -1.84321e-15)
(-1.70139e-15 -1.69126e-15 2.87109e-15)
(1.38741e-15 2.58747e-15 -4.47111e-15)
(1.45322e-15 -9.9244e-16 7.08886e-16)
(-1.7717e-16 -5.24423e-15 5.66943e-16)
(-2.00944e-15 4.02896e-15 9.61786e-17)
(1.94345e-17 1.76426e-15 6.343e-15)
(-2.4826e-15 -2.14192e-15 -1.86297e-15)
(5.38506e-16 1.13797e-14 1.13402e-15)
(9.46459e-16 -9.18114e-15 5.32622e-15)
(2.05868e-15 9.24172e-16 -6.47054e-15)
(-1.21654e-15 -5.91003e-15 -9.21499e-16)
(-1.54554e-15 -2.99887e-15 2.552e-15)
(-3.63844e-15 1.13173e-16 2.41029e-15)
(1.4533e-15 -1.27607e-15 -3.8282e-15)
(1.13424e-15 3.53436e-15 1.98491e-15)
(8.14911e-16 -4.8623e-15 1.76142e-15)
(1.10201e-15 4.14705e-15 -1.57425e-15)
(1.29492e-15 -3.23026e-15 -8.22095e-15)
(7.0352e-16 -2.22591e-15 -4.6726e-15)
(-2.99907e-15 4.49193e-15 -2.55152e-15)
(-2.65992e-15 4.73695e-15 2.81491e-15)
(3.44262e-15 -3.14109e-15 6.20223e-15)
(1.81515e-15 2.00831e-15 2.55187e-15)
(-9.45879e-16 3.66488e-15 -4.65843e-15)
(2.50712e-16 9.91154e-16 4.39518e-15)
(2.63647e-15 3.77006e-15 -2.83572e-15)
(-2.55721e-15 5.26633e-15 -1.36722e-16)
(-1.27543e-15 -3.21115e-17 3.12783e-15)
(-8.95257e-16 -1.44375e-16 -6.26119e-15)
(-1.50726e-15 -3.56615e-15 2.41452e-15)
(1.86848e-15 -1.26028e-15 1.55913e-15)
(1.48929e-15 -1.57549e-15 2.40973e-15)
(-7.83012e-16 -1.05558e-15 -1.26571e-15)
(-2.62491e-15 6.27139e-15 -1.77202e-16)
(1.16864e-15 3.03237e-15 1.35188e-15)
(4.59834e-16 4.23192e-15 8.81035e-16)
(2.52247e-15 1.80152e-15 -8.35487e-16)
(-2.94984e-15 -8.73397e-16 -2.83566e-15)
(2.69905e-15 -3.18922e-15 1.40776e-15)
(-1.43223e-15 9.76294e-16 3.39584e-15)
(4.39542e-17 -2.85479e-15 3.54282e-15)
(2.76283e-15 -1.70212e-15 -1.98413e-15)
(-1.67309e-15 -3.04233e-15 -3.40158e-15)
(-3.1063e-16 -2.52407e-15 4.0498e-16)
(9.87332e-16 1.62206e-15 -2.26806e-15)
(1.30047e-16 1.52764e-15 1.25056e-15)
(-2.51004e-15 -4.20954e-15 2.73419e-16)
(-1.39967e-15 2.08942e-15 -7.93961e-15)
(2.91797e-15 6.58588e-15 -1.13424e-15)
(2.06888e-15 2.88632e-16 8.81086e-16)
(-3.50921e-15 1.08464e-15 8.50718e-16)
(-1.17911e-15 4.85971e-15 -5.24274e-15)
(-1.46343e-15 -2.16796e-15 6.05779e-15)
(9.10359e-16 5.2107e-15 2.02451e-16)
(-2.35384e-15 2.06744e-15 4.10002e-16)
(-1.69806e-16 7.23217e-15 2.69309e-15)
(1.44322e-15 -3.93471e-15 -6.77356e-15)
(3.33481e-15 6.39977e-15 -3.11889e-15)
(-1.90582e-15 -5.22121e-16 1.84302e-15)
(-3.2313e-15 -4.34769e-16 5.10912e-15)
(1.03239e-15 -1.47264e-15 -1.16145e-22)
(3.21349e-15 2.07208e-15 -5.64099e-15)
(-1.985e-15 -2.26858e-15 2.98763e-16)
(-7.32734e-15 4.2975e-15 -1.13351e-15)
(5.1203e-17 -4.18682e-15 1.53335e-15)
(1.93427e-15 1.82342e-15 7.23727e-16)
(4.71337e-15 -1.90106e-15 -8.25032e-16)
(2.39758e-15 -3.11256e-15 -4.39893e-15)
(1.3148e-15 3.18743e-15 5.4928e-15)
(6.44116e-16 -9.69394e-15 6.1717e-15)
(-3.20369e-15 -2.39838e-16 -3.34671e-15)
(-2.89058e-15 -5.52227e-15 7.19014e-16)
(1.62071e-15 -7.28541e-15 -1.24463e-14)
(3.24801e-15 -2.9087e-15 5.82826e-15)
(-2.83576e-16 -3.65105e-15 1.55967e-15)
(-4.47319e-15 -3.89734e-15 1.95828e-15)
(1.24282e-15 4.53647e-15 -7.75772e-15)
(1.04388e-15 6.65777e-16 7.23717e-16)
(-4.86344e-15 3.37228e-15 -2.55098e-15)
(2.78462e-15 7.45584e-16 -7.05647e-15)
(2.56655e-15 -1.63642e-15 -1.8377e-15)
(-1.26145e-15 1.43536e-15 1.09863e-15)
(1.40968e-15 -5.64101e-15 -5.49862e-15)
(-3.04658e-15 1.73401e-15 1.43299e-15)
(3.23326e-15 6.55517e-15 -4.96228e-16)
(-2.41042e-15 -4.25294e-16 5.1954e-15)
(-1.13431e-15 2.65853e-15 5.18541e-15)
(1.31563e-15 2.33771e-15 -2.37825e-16)
(-2.7714e-15 5.07051e-15 2.69219e-15)
(1.90385e-16 -2.26732e-15 -1.27537e-15)
(6.30707e-16 -5.1149e-24 -2.26755e-15)
(-2.54676e-15 5.51773e-16 -1.95905e-15)
(-1.31889e-15 -4.25257e-16 2.2731e-15)
(1.44948e-15 1.55925e-15 -4.53634e-15)
(1.27559e-15 -2.36455e-15 5.76201e-15)
(-3.11609e-16 -1.41782e-16 6.90176e-15)
(-8.53741e-16 1.27609e-15 1.98494e-15)
(-1.52999e-15 8.10258e-16 2.53187e-16)
(1.16469e-15 5.67155e-16 -1.92427e-15)
(4.64523e-15 -2.79738e-15 5.9204e-15)
(-1.76593e-15 4.99628e-16 -1.41694e-15)
(-1.84053e-17 2.01145e-15 -5.7037e-15)
(1.25809e-15 -5.46799e-15 7.28851e-16)
(1.42205e-15 -3.27647e-15 5.72009e-16)
(-5.49913e-15 1.63642e-15 1.41751e-15)
(-1.29849e-16 -2.11896e-15 3.11362e-15)
(1.34782e-15 4.47636e-15 7.372e-15)
(-4.19057e-16 -1.18202e-15 5.78259e-15)
(-1.43995e-16 -2.08899e-15 1.55957e-15)
(-7.81657e-16 5.67199e-16 -8.33492e-15)
(1.36725e-16 1.13431e-15 1.36725e-16)
(4.782e-15 -1.78344e-15 -1.98364e-15)
(1.6893e-15 -2.40663e-15 -4.53426e-15)
(-3.46443e-15 3.26331e-15 2.83417e-16)
(-6.46919e-16 -3.69743e-15 -3.93282e-15)
(3.45988e-15 -1.09423e-15 -2.37917e-15)
(-2.00618e-15 -2.90404e-15 2.23256e-15)
(2.37517e-15 3.94718e-15 -3.17951e-15)
(2.27896e-16 4.05225e-15 -3.66062e-15)
(-2.34249e-15 9.34851e-16 8.55727e-16)
(3.60502e-16 -5.19612e-15 -7.72705e-15)
(1.12905e-15 -1.4156e-15 1.05476e-14)
(1.92933e-15 3.46875e-15 1.08367e-15)
(-1.17911e-15 -2.87588e-15 1.74589e-15)
(1.53443e-15 -2.3059e-15 1.4069e-15)
(-3.9397e-15 -7.76145e-15 -3.72509e-15)
(-2.53988e-15 4.52825e-15 -5.60336e-15)
(1.12042e-15 -7.10577e-15 -1.0985e-15)
(3.41811e-15 2.97322e-15 -5.66995e-16)
(1.7948e-15 -4.22289e-15 2.55182e-15)
(-6.16055e-16 1.35756e-15 -5.94929e-15)
(-5.80261e-15 -6.9971e-16 -3.40271e-15)
(1.32804e-15 3.45759e-15 4.93204e-15)
(3.46536e-15 -2.35553e-15 -1.13934e-15)
(-2.5167e-15 -3.89405e-15 -5.67144e-16)
(4.20052e-16 -4.2449e-16 5.52647e-15)
(2.58454e-15 4.21598e-15 4.55506e-16)
(7.88459e-16 4.63809e-15 4.25171e-16)
(-1.11688e-15 5.25446e-15 -1.98425e-15)
(-9.83433e-16 4.75638e-15 1.13394e-15)
(1.09628e-15 -5.60151e-15 -7.18894e-16)
(-3.10255e-15 7.40293e-16 -4.22256e-15)
(1.85264e-15 2.807e-15 -2.97724e-15)
(-4.4472e-16 2.7969e-15 -4.25336e-15)
(-7.8341e-16 -1.68939e-15 -6.66369e-15)
(-9.34605e-16 3.65094e-15 1.98498e-15)
(-2.5319e-16 -2.28841e-16 -4.10167e-16)
(-5.92162e-16 -5.44959e-15 4.07934e-15)
(1.90363e-15 -1.08452e-16 2.12587e-15)
(-2.12431e-15 -4.30477e-15 8.50396e-16)
(1.34892e-15 2.78835e-15 -6.42888e-16)
(-3.65099e-15 -3.26429e-15 5.81169e-15)
(-9.6571e-16 2.78184e-15 1.38722e-15)
(8.06004e-16 -5.36003e-15 8.39433e-15)
(1.00236e-15 -6.37421e-15 -4.53664e-15)
(-7.71384e-16 -5.32539e-15 -4.11656e-15)
(3.92189e-15 7.35475e-16 2.1267e-15)
(-4.22365e-15 4.56484e-15 -3.83321e-15)
(-2.09139e-15 4.82498e-15 -2.83578e-16)
(1.69562e-15 3.59109e-15 2.52066e-15)
(1.18462e-15 -9.18385e-15 -2.02475e-17)
(1.45786e-15 8.25389e-16 -5.10266e-15)
(-3.18222e-15 -1.40393e-15 2.13127e-15)
(1.65987e-15 -2.37642e-15 -2.40471e-15)
(-2.3393e-15 1.87979e-15 -3.68571e-15)
(8.60957e-16 -8.18222e-16 3.40237e-15)
(-1.77699e-15 1.76851e-15 -9.26572e-16)
(1.17844e-15 -4.09021e-15 -6.83573e-16)
(6.32112e-15 4.10783e-15 4.22302e-15)
(-2.10317e-15 -4.66618e-15 -8.50716e-16)
(1.70143e-15 -2.97244e-15 5.04859e-15)
(-7.44113e-16 8.04317e-15 -1.24019e-15)
(2.4686e-15 4.35232e-16 -1.56417e-15)
(4.83755e-16 4.33076e-15 2.83486e-16)
(-4.22162e-15 -1.51309e-15 -4.64224e-15)
(1.33233e-15 -4.14483e-15 -2.6933e-15)
(3.99476e-15 6.48715e-15 7.7463e-15)
(-2.66161e-15 -1.49549e-16 -6.59205e-15)
(1.00483e-15 8.56296e-15 3.29107e-15)
(-4.26318e-15 1.70246e-15 1.41778e-16)
(2.87262e-16 -6.9034e-15 3.8281e-15)
(2.27363e-15 1.42292e-15 2.37997e-16)
(-1.38235e-15 -6.47628e-15 1.41779e-15)
(-3.68536e-15 -4.42636e-15 1.84268e-15)
(3.91586e-17 7.02689e-15 4.25242e-16)
(2.29409e-15 -6.89233e-15 -7.0367e-16)
(-5.61473e-15 -1.42951e-17 -8.40406e-16)
(3.5178e-15 6.53755e-15 -4.81974e-15)
(-5.09931e-16 -5.40913e-15 3.82763e-15)
(1.31006e-15 -1.52945e-16 1.09872e-15)
(-3.09376e-15 -3.12291e-15 4.11152e-15)
(-1.23841e-15 1.31266e-15 -5.13972e-15)
(1.4077e-15 2.88628e-16 -6.78529e-16)
(1.52919e-15 -2.21783e-15 2.39e-15)
(1.45322e-15 9.9244e-16 -1.41777e-16)
(1.95417e-15 -2.37045e-16 8.55582e-16)
(-3.18972e-15 -2.31863e-15 -6.49049e-15)
(-2.48153e-15 -1.73589e-15 -5.64495e-15)
(3.21311e-15 3.87592e-15 -8.43979e-15)
(-3.82766e-16 3.59664e-15 -1.86319e-15)
(-8.53258e-16 2.55529e-15 -1.13415e-15)
(5.31873e-16 6.08509e-15 5.67079e-16)
(2.22363e-15 4.0415e-16 -3.26081e-15)
(-2.22293e-15 1.36718e-15 2.23306e-15)
(5.62042e-16 6.77995e-15 5.39257e-15)
(-5.93311e-16 2.6937e-15 5.66081e-15)
(-1.77725e-15 -3.48701e-16 5.15453e-15)
(-6.78406e-16 -4.30561e-15 1.55932e-15)
(2.97981e-15 -2.02354e-15 2.29852e-15)
(-1.70114e-15 5.93925e-16 -1.40243e-15)
(3.82762e-15 1.1401e-16 2.6935e-15)
(-2.53655e-15 1.41765e-16 -3.68589e-15)
(8.40523e-16 2.52552e-15 -3.37215e-15)
(-8.32436e-16 -2.41114e-15 -2.40517e-15)
(1.41781e-16 -2.26849e-15 7.73718e-15)
(-9.92445e-16 2.83556e-16 -3.82294e-15)
(-1.01855e-15 -2.25795e-16 -8.20261e-16)
(2.83541e-16 -6.42378e-15 2.26833e-15)
(-4.25338e-16 -1.6248e-15 -2.83559e-15)
(5.34628e-15 3.82551e-15 -4.35397e-15)
(4.20224e-16 2.14669e-15 4.11111e-15)
(1.16448e-16 4.38957e-15 -2.40996e-15)
(-1.14346e-15 -1.37899e-15 -4.11127e-15)
(-2.83575e-16 -3.47573e-15 -2.83545e-16)
(-4.01426e-16 -5.39872e-15 -3.23559e-15)
(3.09513e-15 -8.6079e-16 2.83554e-16)
(-4.16012e-16 -1.41771e-16 2.11138e-15)
(-2.68339e-16 3.70105e-15 -4.81491e-15)
(-1.17674e-15 1.24567e-15 -1.25574e-15)
(-4.55722e-16 3.24069e-15 1.72162e-16)
(8.60844e-16 7.0893e-16 -1.41786e-16)
(1.41762e-16 3.51368e-15 2.83525e-15)
(1.41762e-16 -4.16174e-15 -4.2225e-15)
(5.57737e-16 -2.41507e-15 -2.27331e-15)
(-5.56147e-16 2.8354e-16 5.67081e-16)
(-1.13419e-15 -1.94433e-15 2.92155e-15)
(8.3037e-16 -5.31639e-15 -2.02023e-15)
(9.92367e-16 2.5518e-15 -7.87312e-15)
(0 -4.25325e-16 7.74699e-15)
(-5.08499e-16 -5.95448e-15 4.20257e-16)
(3.60326e-15 -3.40281e-15 -5.67135e-16)
(2.8356e-16 5.91932e-15 4.35467e-16)
(-3.36742e-15 -2.83572e-16 1.41786e-16)
(-3.19971e-15 -2.53648e-15 -3.96927e-15)
(-2.88587e-16 -3.2909e-15 -1.41762e-16)
(2.99168e-15 -6.31865e-15 1.6708e-15)
(1.98472e-15 2.83531e-15 2.93657e-15)
(-2.12646e-15 1.16955e-15 -1.41764e-15)
(-1.18855e-15 4.02521e-15 -7.08841e-16)
(1.53926e-15 6.21275e-15 -2.58738e-15)
(8.13538e-18 -5.38244e-15 2.69375e-15)
(-4.0201e-16 -2.97735e-15 -2.55202e-15)
(0 8.50676e-16 -1.4178e-16)
(-2.6457e-15 1.67599e-15 4.37985e-15)
(1.4128e-15 -2.94206e-15 4.99796e-15)
(8.55602e-16 -9.72427e-17 2.69337e-15)
(-3.51996e-15 2.01232e-15 4.39454e-15)
(-1.82188e-15 2.12927e-15 -1.25561e-15)
(2.82379e-15 -9.4502e-16 1.70116e-15)
(-4.34657e-16 -4.84746e-15 1.22526e-15)
(8.80446e-16 6.43268e-15 -4.35949e-15)
(-7.2319e-16 -4.81623e-17 1.80261e-15)
(-4.1319e-15 6.6637e-15 -7.3726e-15)
(5.67112e-16 1.16967e-15 -1.02303e-22)
(6.80942e-17 1.98483e-15 -8.75451e-15)
(3.78822e-15 -8.89534e-16 4.45058e-15)
(1.57983e-15 -4.35428e-16 8.50676e-16)
(4.78901e-15 -9.61471e-16 2.83493e-16)
(3.29157e-15 -2.70022e-16 -3.22475e-15)
(-2.04297e-15 6.25826e-16 5.67026e-16)
(3.10509e-17 -3.38974e-15 1.58465e-15)
(3.08677e-15 -6.64959e-16 -4.96168e-15)
(-9.69542e-16 -3.48213e-15 4.39505e-15)
(1.6969e-15 -5.64111e-15 -6.68357e-16)
(-1.80764e-15 -4.9662e-15 -6.91663e-15)
(-3.71227e-15 -1.31912e-15 3.26098e-15)
(4.35969e-15 7.08893e-16 -1.70134e-15)
(-1.55953e-15 3.86845e-15 1.70131e-15)
(4.25318e-16 -2.12659e-15 -5.67091e-16)
(-8.45392e-16 3.76021e-16 -1.31112e-15)
(-2.37138e-15 2.87238e-16 -2.83491e-16)
(-1.14845e-16 -1.9773e-15 -3.25526e-15)
(6.69566e-16 -6.18813e-16 1.41757e-15)
(3.19227e-16 -2.98777e-15 -8.65746e-16)
(-2.06816e-15 3.51365e-16 -2.72913e-15)
(-2.55692e-15 4.26074e-15 4.10115e-15)
(3.30292e-15 3.14538e-15 -1.70123e-15)
(1.65124e-16 3.0409e-15 -1.01774e-15)
(-6.27053e-16 -1.48285e-15 -2.83057e-15)
(0 -2.69393e-15 1.84322e-15)
(-1.83306e-15 -1.70141e-15 2.26854e-15)
(-1.32117e-15 -1.01498e-15 -2.12603e-15)
(-1.97378e-15 3.81433e-15 1.94387e-15)
(8.69743e-16 -2.13805e-15 -3.54863e-15)
(-3.28402e-15 1.02181e-15 -5.09784e-15)
(1.94813e-15 6.95331e-15 4.50586e-15)
(-1.23847e-17 -1.22265e-15 -6.92639e-15)
(6.38828e-16 -1.27693e-16 -1.95948e-15)
(-8.02629e-16 -5.96453e-16 -1.01774e-15)
(-6.26341e-16 2.2471e-15 1.84314e-15)
(-3.25582e-15 -1.48804e-15 6.87131e-15)
(-5.09219e-16 -5.1126e-15 -3.54458e-17)
(3.08388e-15 4.53214e-15 -1.36724e-16)
(5.63855e-15 1.75586e-15 -4.18083e-15)
(-2.30183e-15 7.65991e-16 1.85769e-15)
(-2.35498e-15 1.73515e-15 3.18907e-16)
(2.3245e-15 -1.395e-15 2.53617e-15)
(5.39474e-16 2.03608e-15 -6.09549e-15)
(-1.8977e-15 -2.31543e-15 -3.11381e-15)
(2.75221e-15 2.54264e-15 -4.38969e-15)
(9.81078e-16 -3.09535e-15 -8.22256e-15)
(-2.64453e-15 -9.60436e-16 -5.49893e-15)
(1.4651e-15 3.11559e-15 2.48105e-16)
(6.16342e-16 1.44773e-15 4.35974e-15)
(2.83574e-15 -3.2221e-15 -4.67897e-15)
(-2.97601e-15 6.66738e-16 8.75593e-16)
(-1.40111e-15 -2.18544e-15 -1.69557e-15)
(1.0644e-15 5.75332e-15 -9.92085e-16)
(1.14702e-15 6.75778e-15 -3.25489e-15)
(-2.62344e-15 -9.9505e-16 2.28825e-15)
(2.37375e-15 3.7344e-15 5.72111e-16)
(-1.22149e-15 -3.91297e-16 3.54422e-17)
(-2.87066e-15 5.77079e-15 -9.34647e-23)
(3.29382e-15 -2.35928e-15 1.86341e-15)
(-1.11585e-15 -6.26172e-17 3.55979e-15)
(-3.64611e-15 -7.08921e-16 -2.83569e-16)
(4.65856e-16 -2.09279e-15 8.4563e-16)
(-3.22364e-15 -2.45263e-15 1.70544e-15)
(4.06525e-16 1.53622e-15 2.5203e-15)
(3.41067e-15 -6.36613e-15 -3.03171e-15)
(-2.28155e-15 -2.94573e-15 6.76759e-15)
(2.20263e-15 -6.24145e-15 -6.94033e-15)
(-2.67026e-15 -4.99798e-17 1.25559e-15)
(-1.90208e-15 4.20867e-15 3.11892e-15)
(7.1148e-16 -6.98709e-16 -1.98485e-15)
(-2.99576e-15 3.01438e-15 -3.261e-15)
(6.2185e-16 4.42621e-16 2.83574e-15)
(2.80088e-15 -2.12071e-15 1.98503e-15)
(-5.38792e-15 2.12681e-15 -1.84324e-15)
(4.09874e-16 -1.01661e-16 -3.24863e-15)
(-9.9284e-16 -3.24705e-15 -2.83385e-16)
(-1.73236e-16 1.50161e-15 5.0863e-15)
(1.8251e-15 -2.43809e-15 -4.46431e-15)
(2.60331e-15 2.51131e-15 -3.40175e-15)
(2.75144e-15 -2.06977e-15 3.54397e-15)
(-4.81513e-15 -3.05702e-16 1.06325e-16)
(-2.66119e-16 -4.97055e-15 -5.56976e-16)
(-2.65345e-16 4.74402e-15 4.39523e-15)
(1.21513e-16 2.88075e-15 -4.93216e-15)
(-2.66581e-16 1.60126e-15 -5.81844e-15)
(4.60823e-16 6.36085e-16 8.5075e-16)
(4.21488e-15 -3.23337e-15 -1.41677e-15)
(-9.10693e-16 -1.40227e-15 -4.92363e-15)
(1.66371e-15 4.32366e-15 3.48184e-15)
(5.94737e-16 -1.0831e-15 3.69484e-15)
(-2.45687e-15 2.83585e-16 1.98437e-15)
(4.53777e-16 3.52028e-15 7.08787e-16)
(-1.27827e-15 -1.17048e-15 -1.27592e-15)
(2.49607e-15 2.20499e-15 -1.13423e-15)
(1.31158e-15 -1.13901e-15 -1.51402e-15)
(-1.01725e-15 -4.88772e-15 -9.04413e-15)
(-4.61809e-15 -1.89796e-15 1.10394e-15)
(5.51981e-16 -1.23757e-15 4.3804e-15)
(1.41669e-15 5.15667e-15 -2.83338e-16)
(2.90653e-15 4.57179e-15 4.21496e-15)
(-8.19301e-17 8.89e-16 2.93006e-15)
(-2.76584e-16 -1.93599e-15 -8.45234e-16)
(-2.63395e-16 -4.47077e-15 2.68794e-15)
(7.71017e-16 3.58247e-16 -5.10329e-15)
(-4.81462e-16 -7.33644e-15 -8.95204e-15)
(2.32399e-16 -7.63792e-15 -3.11914e-15)
(-1.08913e-15 1.49087e-15 1.1292e-15)
(1.3948e-15 1.56682e-15 4.16761e-15)
(1.4688e-15 1.3246e-15 -2.56745e-15)
(-4.25384e-15 1.95981e-15 3.79808e-16)
(-3.9464e-16 -3.78969e-15 -6.88091e-16)
(-2.49924e-15 -3.68288e-15 7.19501e-15)
(2.10268e-15 -2.11254e-15 6.93282e-16)
(-1.82217e-15 2.54226e-15 -3.53275e-15)
(9.32488e-16 -1.5941e-15 3.55852e-15)
(-2.98728e-15 1.2842e-15 2.40478e-15)
(9.57826e-16 2.6484e-15 -3.82788e-15)
(1.33546e-15 2.64514e-15 7.34204e-15)
(1.6807e-15 5.0637e-17 -4.55733e-16)
(-1.22842e-15 3.08383e-15 7.02878e-15)
(5.40455e-15 1.95476e-15 -5.11984e-15)
(1.23564e-15 1.09891e-15 6.10731e-15)
(-5.94991e-15 -9.71414e-16 -3.15204e-15)
(-3.01123e-15 1.41673e-16 -8.89504e-15)